----- GAMESS execution script -----
This job is running on host r7c4n13
under operating system Linux at Thu Aug 26 20:47:47 EDT 2010
making user scratch directory on r7c4n13
making job scratch directory on r7c4n13
Available scratch disk space (Kbyte units) at beginning of the job is
Filesystem           1K-blocks      Used Available Use% Mounted on
172.23.10.3:/scratch/network
                     1228072952 463336304 702364720  40% /scratch/network

 Distributed Data Interface kickoff program.
 Initiating 8 compute processes on 1 nodes to run the following command:

          ******************************************************
          *         GAMESS VERSION = 22 FEB 2006 (R5)          *
          *             FROM IOWA STATE UNIVERSITY             *
          * M.W.SCHMIDT, K.K.BALDRIDGE, J.A.BOATZ, S.T.ELBERT, *
          *   M.S.GORDON, J.H.JENSEN, S.KOSEKI, N.MATSUNAGA,   *
          *          K.A.NGUYEN, S.J.SU, T.L.WINDUS,           *
          *       TOGETHER WITH M.DUPUIS, J.A.MONTGOMERY       *
          *         J.COMPUT.CHEM.  14, 1347-1363(1993)        *
          **************** LINUX-ITANIUM VERSION ***************

     SINCE 1993, STUDENTS AND POSTDOCS WORKING AT IOWA STATE UNIVERSITY
     AND ALSO IN THEIR VARIOUS JOBS AFTER LEAVING ISU HAVE MADE IMPORTANT
     CONTRIBUTIONS TO THE CODE:
     IVANA ADAMOVIC, CHRISTINE AIKENS, YURI ALEXEEV, POOJA ARORA, ROB BELL,
     PRADIPTA BANDYOPADHYAY, BRETT BODE, GALINA CHABAN, WEI CHEN,
     CHEOL HO CHOI, PAUL DAY, TIM DUDLEY, DMITRI FEDOROV, GRAHAM FLETCHER,
     MARK FREITAG, KURT GLAESEMANN, GRANT MERRILL, TAKESHI NAGATA,
     HEATHER NETZLOFF, BOSILJKA NJEGIC, RYAN OLSON, MIKE PAK, JIM SHOEMAKER,
     LYUDMILA SLIPCHENKO, JIE SONG, TETSUYA TAKETSUGU, SIMON WEBB.

     ADDITIONAL CODE HAS BEEN PROVIDED BY COLLABORATORS IN OTHER GROUPS:
     IOWA STATE UNIVERSITY: JOE IVANIC, KLAUS RUEDENBERG
     UNIVERSITY OF TOKYO: KIMIHIKO HIRAO, HARUYUKI NAKANO, TAKAHITO
          NAKAJIMA, TAKAO TSUNEDA, MUNEAKI KAMIYA, SUSUMU YANAGISAWA,
          KIYOSHI YAGI
     UNIVERSITY OF SOUTHERN DENMARK: FRANK JENSEN
     UNIVERSITY OF IOWA: VISVALDAS KAIRYS, HUI LI
     NATIONAL INST. OF STANDARDS AND TECHNOLOGY: WALT STEVENS, DAVID GARMER
     UNIVERSITY OF PISA: BENEDETTA MENNUCCI, JACOPO TOMASI
     UNIVERSITY OF MEMPHIS: HENRY KURTZ, PRAKASHAN KORAMBATH
     UNIVERSITY OF ALBERTA: MARIUSZ KLOBUKOWSKI
     UNIVERSITY OF NEW ENGLAND: MARK SPACKMAN
     MIE UNIVERSITY: HIROAKI UMEDA
     MICHIGAN STATE UNIVERSITY:
          KAROL KOWALSKI, MARTA WLOCH, PIOTR PIECUCH
     UNIVERSITY OF SILESIA: MONIKA MUSIAL, STANISLAW KUCHARSKI
     FACULTES UNIVERSITAIRES NOTRE-DAME DE LA PAIX:
          OLIVIER QUINET, BENOIT CHAMPAGNE
     UNIVERSITY OF CALIFORNIA - SANTA BARBARA: BERNARD KIRTMAN
     INSTITUTE FOR MOLECULAR SCIENCE: KAZUYA ISHIMURA AND SHIGERU NAGASE
     UNIVERSITY OF NOTRE DAME: DAN CHIPMAN
     KYUSHU UNIVERSITY:
          FENG LONG GU, JACEK KORCHOWIEC, MARCIN MAKOWSKI, AND YURIKO AOKI
     PENNSYLVANIA STATE UNIVERSITY:
          TZVETELIN IORDANOV, CHET SWALINA, SHARON HAMMES-SCHIFFER


 PARALLEL VERSION RUNNING ON     8 PROCESSORS IN     1 NODES.

 EXECUTION OF GAMESS BEGUN Thu Aug 26 20:47:48 2010

            ECHO OF THE FIRST FEW INPUT CARDS -
 INPUT CARD> $CONTRL SCFTYP=UHF MULT=9 COORD=UNIQUE ICHARG=36 MAXIT=200 $END                
 INPUT CARD> $CONTRL PP=READ ISPHER=+1 $END                                                 
 INPUT CARD> $SCF    DIRSCF=.TRUE. SHIFT=.TRUE. $END                                        
 INPUT CARD> $GUESS  GUESS=HUCKEL $END                                                      
 INPUT CARD> $DATA                                                                          
 INPUT CARD>  FeO 2+ 1 a 1 b 10 o                                                           
 INPUT CARD>  C1                                                                            
 INPUT CARD>Fe 26.0   17.336  17.336  17.336                                                
 INPUT CARD> S   3                                                                          
 INPUT CARD>  1        6.422000000        -0.3927882000                                     
 INPUT CARD>  2        1.826000000         0.7712643000                                     
 INPUT CARD>  3       0.7135000000         0.4920228000                                     
 INPUT CARD> S   4                                                                          
 INPUT CARD>  1        6.422000000         0.1786877000                                     
 INPUT CARD>  2        1.826000000        -0.4194032000                                     
 INPUT CARD>  3       0.7135000000        -0.4568185000                                     
 INPUT CARD>  4       0.1021000000          1.103504800                                     
 INPUT CARD> S   1                                                                          
 INPUT CARD>  1       0.3630000000E-01      1.000000000                                     
 INPUT CARD> P   3                                                                          
 INPUT CARD>  1        19.48000000        -0.4702820000E-01                                 
 INPUT CARD>  2        2.389000000         0.6248841000                                     
 INPUT CARD>  3       0.7795000000         0.4722542000                                     
 INPUT CARD> P   1                                                                          
 INPUT CARD>  1       0.7400000000E-01      1.000000000                                     
 INPUT CARD> P   1                                                                          
 INPUT CARD>  1       0.2200000000E-01      1.000000000                                     
 INPUT CARD> D   4                                                                          
 INPUT CARD>  1        37.08000000         0.3290000000E-01                                 
 INPUT CARD>  2        10.10000000         0.1787418000                                     
 INPUT CARD>  3        3.220000000         0.4487657000                                     
 INPUT CARD>  4       0.9628000000         0.5876361000                                     
 INPUT CARD> D   1                                                                          
 INPUT CARD>  1       0.2262000000          1.000000000                                     
 INPUT CARD>                                                                                
 INPUT CARD>Fe 26.0   19.503  15.169  17.336                                                
 INPUT CARD> S   3                                                                          
 INPUT CARD>  1        6.422000000        -0.3927882000                                     
 INPUT CARD>  2        1.826000000         0.7712643000                                     
 INPUT CARD>  3       0.7135000000         0.4920228000                                     
 INPUT CARD> S   4                                                                          
 INPUT CARD>  1        6.422000000         0.1786877000                                     
 INPUT CARD>  2        1.826000000        -0.4194032000                                     
 INPUT CARD>  3       0.7135000000        -0.4568185000                                     
 INPUT CARD>  4       0.1021000000          1.103504800                                     
 INPUT CARD> S   1                                                                          
 INPUT CARD>  1       0.3630000000E-01      1.000000000                                     
 INPUT CARD> P   3                                                                          
 INPUT CARD>  1        19.48000000        -0.4702820000E-01                                 
 INPUT CARD>  2        2.389000000         0.6248841000                                     

 ..... DONE SETTING UP THE RUN .....
    1000000 WORDS OF MEMORY AVAILABLE


     RUN TITLE
     ---------
   FeO 2+ 1 a 1 b 10 o                                                           

 THE POINT GROUP OF THE MOLECULE IS C1      
 THE ORDER OF THE PRINCIPAL AXIS IS     0

 ATOM      ATOMIC                      COORDINATES (BOHR)
           CHARGE         X                   Y                   Z
 FE         26.0    32.7602897231       32.7602897231       32.7602897231
 FE         26.0    36.8553259385       28.6652535078       32.7602897231
 O           8.0    36.8553259385       28.6652535078       28.6652535078
 O           8.0    36.8553259385       28.6652535078       36.8553259385
 O           8.0    28.6652535078       32.7602897231       32.7602897231
 O           8.0    36.8553259385       24.5702172924       32.7602897231
 O           8.0    36.8553259385       32.7602897231       32.7602897231
 O           8.0    32.7602897231       28.6652535078       32.7602897231
 O           8.0    32.7602897231       36.8553259385       32.7602897231
 O           8.0    40.9503621539       28.6652535078       32.7602897231
 O           8.0    32.7602897231       32.7602897231       28.6652535078
 O           8.0    32.7602897231       32.7602897231       36.8553259385
 MG         12.0    24.5702172924       32.7602897231       32.7602897231
 MG         12.0    32.7602897231       24.5702172924       32.7602897231
 MG         12.0    32.7602897231       32.7602897231       24.5702172924
 MG         12.0    32.7602897231       32.7602897231       40.9503621539
 MG         12.0    32.7602897231       40.9503621539       32.7602897231
 MG         12.0    40.9503621539       24.5702172924       32.7602897231
 MG         12.0    40.9503621539       32.7602897231       32.7602897231
 MG         12.0    32.7602897231       28.6652535078       28.6652535078
 MG         12.0    32.7602897231       28.6652535078       36.8553259385
 MG         12.0    32.7602897231       36.8553259385       28.6652535078
 MG         12.0    32.7602897231       36.8553259385       36.8553259385
 MG         12.0    40.9503621539       28.6652535078       28.6652535078
 MG         12.0    40.9503621539       28.6652535078       36.8553259385
 MG         12.0    28.6652535078       32.7602897231       28.6652535078
 MG         12.0    28.6652535078       32.7602897231       36.8553259385
 MG         12.0    36.8553259385       24.5702172924       28.6652535078
 MG         12.0    36.8553259385       24.5702172924       36.8553259385
 MG         12.0    36.8553259385       32.7602897231       28.6652535078
 MG         12.0    36.8553259385       32.7602897231       36.8553259385
 MG         12.0    28.6652535078       28.6652535078       32.7602897231
 MG         12.0    28.6652535078       36.8553259385       32.7602897231
 MG         12.0    36.8553259385       20.4751810770       32.7602897231
 MG         12.0    36.8553259385       28.6652535078       24.5702172924
 MG         12.0    36.8553259385       28.6652535078       40.9503621539
 MG         12.0    36.8553259385       36.8553259385       32.7602897231
 MG         12.0    45.0453983693       28.6652535078       32.7602897231

          INTERNUCLEAR DISTANCES (ANGS.)
          ------------------------------

                    FE             FE             O              O         

  1  FE              0.0000000      3.0646008      3.7533541      3.7533541    
  2  FE              3.0646008      0.0000000      2.1670000 *    2.1670000 *  
  3  O               3.7533541      2.1670000 *    0.0000000      4.3340000    
  4  O               3.7533541      2.1670000 *    4.3340000      0.0000000    
  5  O               2.1670000 *    4.8455593      5.3080443      5.3080443    
  6  O               4.8455593      2.1670000 *    3.0646008      3.0646008    
  7  O               2.1670000 *    2.1670000 *    3.0646008      3.0646008    
  8  O               2.1670000 *    2.1670000 *    3.0646008      3.0646008    
  9  O               2.1670000 *    4.8455593      5.3080443      5.3080443    
 10  O               4.8455593      2.1670000 *    3.0646008      3.0646008    
 11  O               2.1670000 *    3.7533541      3.0646008      5.3080443    
 12  O               2.1670000 *    3.7533541      5.3080443      3.0646008    
 13  MG              4.3340000      6.8526557      7.1871259      7.1871259    
 14  MG              4.3340000      3.0646008      3.7533541      3.7533541    
 15  MG              4.3340000      5.3080443      3.7533541      7.1871259    
 16  MG              4.3340000      5.3080443      7.1871259      3.7533541    
 17  MG              4.3340000      6.8526557      7.1871259      7.1871259    
 18  MG              6.1292016      3.0646008      3.7533541      3.7533541    
 19  MG              4.3340000      3.0646008      3.7533541      3.7533541    
 20  MG              3.0646008      3.0646008      2.1670000 *    4.8455593    
 21  MG              3.0646008      3.0646008      4.8455593      2.1670000 *  
 22  MG              3.0646008      5.3080443      4.8455593      6.5010000    
 23  MG              3.0646008      5.3080443      6.5010000      4.8455593    
 24  MG              5.3080443      3.0646008      2.1670000 *    4.8455593    
 25  MG              5.3080443      3.0646008      4.8455593      2.1670000 *  
 26  MG              3.0646008      5.3080443      4.8455593      6.5010000    
 27  MG              3.0646008      5.3080443      6.5010000      4.8455593    
 28  MG              5.3080443      3.0646008      2.1670000 *    4.8455593    
 29  MG              5.3080443      3.0646008      4.8455593      2.1670000 *  
 30  MG              3.0646008      3.0646008      2.1670000 *    4.8455593    
 31  MG              3.0646008      3.0646008      4.8455593      2.1670000 *  
 32  MG              3.0646008      4.3340000      4.8455593      4.8455593    
 33  MG              3.0646008      6.1292016      6.5010000      6.5010000    
 34  MG              6.8526557      4.3340000      4.8455593      4.8455593    
 35  MG              5.3080443      4.3340000      2.1670000 *    6.5010000    
 36  MG              5.3080443      4.3340000      6.5010000      2.1670000 *  
 37  MG              3.0646008      4.3340000      4.8455593      4.8455593    
 38  MG              6.8526557      4.3340000      4.8455593      4.8455593    

                    O              O              O              O         

  1  FE              2.1670000 *    4.8455593      2.1670000 *    2.1670000 *  
  2  FE              4.8455593      2.1670000 *    2.1670000 *    2.1670000 *  
  3  O               5.3080443      3.0646008      3.0646008      3.0646008    
  4  O               5.3080443      3.0646008      3.0646008      3.0646008    
  5  O               0.0000000      6.1292016      4.3340000      3.0646008    
  6  O               6.1292016      0.0000000      4.3340000      3.0646008    
  7  O               4.3340000      4.3340000      0.0000000      3.0646008    
  8  O               3.0646008      3.0646008      3.0646008      0.0000000    
  9  O               3.0646008      6.8526557      3.0646008      4.3340000    
 10  O               6.8526557      3.0646008      3.0646008      4.3340000    
 11  O               3.0646008      5.3080443      3.0646008      3.0646008    
 12  O               3.0646008      5.3080443      3.0646008      3.0646008    
 13  MG              2.1670000 *    7.8132296      6.5010000      4.8455593    
 14  MG              4.8455593      2.1670000 *    4.8455593      2.1670000 *  
 15  MG              4.8455593      6.5010000      4.8455593      4.8455593    
 16  MG              4.8455593      6.5010000      4.8455593      4.8455593    
 17  MG              4.8455593      8.9347699      4.8455593      6.5010000    
 18  MG              7.8132296      2.1670000 *    4.8455593      4.8455593    
 19  MG              6.5010000      4.8455593      2.1670000 *    4.8455593    
 20  MG              3.7533541      3.7533541      3.7533541      2.1670000 *  
 21  MG              3.7533541      3.7533541      3.7533541      2.1670000 *  
 22  MG              3.7533541      7.1871259      3.7533541      4.8455593    
 23  MG              3.7533541      7.1871259      3.7533541      4.8455593    
 24  MG              7.1871259      3.7533541      3.7533541      4.8455593    
 25  MG              7.1871259      3.7533541      3.7533541      4.8455593    
 26  MG              2.1670000 *    6.5010000      4.8455593      3.7533541    
 27  MG              2.1670000 *    6.5010000      4.8455593      3.7533541    
 28  MG              6.5010000      2.1670000 *    4.8455593      3.7533541    
 29  MG              6.5010000      2.1670000 *    4.8455593      3.7533541    
 30  MG              4.8455593      4.8455593      2.1670000 *    3.7533541    
 31  MG              4.8455593      4.8455593      2.1670000 *    3.7533541    
 32  MG              2.1670000 *    4.8455593      4.8455593      2.1670000 *  
 33  MG              2.1670000 *    7.8132296      4.8455593      4.8455593    
 34  MG              7.8132296      2.1670000 *    6.5010000      4.8455593    
 35  MG              6.5010000      4.8455593      4.8455593      4.8455593    
 36  MG              6.5010000      4.8455593      4.8455593      4.8455593    
 37  MG              4.8455593      6.5010000      2.1670000 *    4.8455593    
 38  MG              8.9347699      4.8455593      4.8455593      6.5010000    

                    O              O              O              O         

  1  FE              2.1670000 *    4.8455593      2.1670000 *    2.1670000 *  
  2  FE              4.8455593      2.1670000 *    3.7533541      3.7533541    
  3  O               5.3080443      3.0646008      3.0646008      5.3080443    
  4  O               5.3080443      3.0646008      5.3080443      3.0646008    
  5  O               3.0646008      6.8526557      3.0646008      3.0646008    
  6  O               6.8526557      3.0646008      5.3080443      5.3080443    
  7  O               3.0646008      3.0646008      3.0646008      3.0646008    
  8  O               4.3340000      4.3340000      3.0646008      3.0646008    
  9  O               0.0000000      6.1292016      3.0646008      3.0646008    
 10  O               6.1292016      0.0000000      5.3080443      5.3080443    
 11  O               3.0646008      5.3080443      0.0000000      4.3340000    
 12  O               3.0646008      5.3080443      4.3340000      0.0000000    
 13  MG              4.8455593      8.9347699      4.8455593      4.8455593    
 14  MG              6.5010000      4.8455593      4.8455593      4.8455593    
 15  MG              4.8455593      6.5010000      2.1670000 *    6.5010000    
 16  MG              4.8455593      6.5010000      6.5010000      2.1670000 *  
 17  MG              2.1670000 *    7.8132296      4.8455593      4.8455593    
 18  MG              7.8132296      2.1670000 *    6.5010000      6.5010000    
 19  MG              4.8455593      2.1670000 *    4.8455593      4.8455593    
 20  MG              4.8455593      4.8455593      2.1670000 *    4.8455593    
 21  MG              4.8455593      4.8455593      4.8455593      2.1670000 *  
 22  MG              2.1670000 *    6.5010000      2.1670000 *    4.8455593    
 23  MG              2.1670000 *    6.5010000      4.8455593      2.1670000 *  
 24  MG              6.5010000      2.1670000 *    4.8455593      6.5010000    
 25  MG              6.5010000      2.1670000 *    6.5010000      4.8455593    
 26  MG              3.7533541      7.1871259      2.1670000 *    4.8455593    
 27  MG              3.7533541      7.1871259      4.8455593      2.1670000 *  
 28  MG              7.1871259      3.7533541      4.8455593      6.5010000    
 29  MG              7.1871259      3.7533541      6.5010000      4.8455593    
 30  MG              3.7533541      3.7533541      2.1670000 *    4.8455593    
 31  MG              3.7533541      3.7533541      4.8455593      2.1670000 *  
 32  MG              4.8455593      6.5010000      3.7533541      3.7533541    
 33  MG              2.1670000 *    7.8132296      3.7533541      3.7533541    
 34  MG              8.9347699      4.8455593      7.1871259      7.1871259    
 35  MG              6.5010000      4.8455593      3.7533541      7.1871259    
 36  MG              6.5010000      4.8455593      7.1871259      3.7533541    
 37  MG              2.1670000 *    4.8455593      3.7533541      3.7533541    
 38  MG              7.8132296      2.1670000 *    7.1871259      7.1871259    

                    MG             MG             MG             MG        

  1  FE              4.3340000      4.3340000      4.3340000      4.3340000    
  2  FE              6.8526557      3.0646008      5.3080443      5.3080443    
  3  O               7.1871259      3.7533541      3.7533541      7.1871259    
  4  O               7.1871259      3.7533541      7.1871259      3.7533541    
  5  O               2.1670000 *    4.8455593      4.8455593      4.8455593    
  6  O               7.8132296      2.1670000 *    6.5010000      6.5010000    
  7  O               6.5010000      4.8455593      4.8455593      4.8455593    
  8  O               4.8455593      2.1670000 *    4.8455593      4.8455593    
  9  O               4.8455593      6.5010000      4.8455593      4.8455593    
 10  O               8.9347699      4.8455593      6.5010000      6.5010000    
 11  O               4.8455593      4.8455593      2.1670000 *    6.5010000    
 12  O               4.8455593      4.8455593      6.5010000      2.1670000 *  
 13  MG              0.0000000      6.1292016      6.1292016      6.1292016    
 14  MG              6.1292016      0.0000000      6.1292016      6.1292016    
 15  MG              6.1292016      6.1292016      0.0000000      8.6680000    
 16  MG              6.1292016      6.1292016      8.6680000      0.0000000    
 17  MG              6.1292016      8.6680000      6.1292016      6.1292016    
 18  MG              9.6911186      4.3340000      7.5067082      7.5067082    
 19  MG              8.6680000      6.1292016      6.1292016      6.1292016    
 20  MG              5.3080443      3.0646008      3.0646008      6.8526557    
 21  MG              5.3080443      3.0646008      6.8526557      3.0646008    
 22  MG              5.3080443      6.8526557      3.0646008      6.8526557    
 23  MG              5.3080443      6.8526557      6.8526557      3.0646008    
 24  MG              9.1938024      5.3080443      5.3080443      8.1081716    
 25  MG              9.1938024      5.3080443      8.1081716      5.3080443    
 26  MG              3.0646008      5.3080443      3.0646008      6.8526557    
 27  MG              3.0646008      5.3080443      6.8526557      3.0646008    
 28  MG              8.1081716      3.0646008      5.3080443      8.1081716    
 29  MG              8.1081716      3.0646008      8.1081716      5.3080443    
 30  MG              6.8526557      5.3080443      3.0646008      6.8526557    
 31  MG              6.8526557      5.3080443      6.8526557      3.0646008    
 32  MG              3.0646008      3.0646008      5.3080443      5.3080443    
 33  MG              3.0646008      6.8526557      5.3080443      5.3080443    
 34  MG              9.1938024      3.0646008      8.1081716      8.1081716    
 35  MG              8.1081716      5.3080443      3.0646008      9.1938024    
 36  MG              8.1081716      5.3080443      9.1938024      3.0646008    
 37  MG              6.8526557      6.8526557      5.3080443      5.3080443    
 38  MG             11.0495753      6.8526557      8.1081716      8.1081716    

                    MG             MG             MG             MG        

  1  FE              4.3340000      6.1292016      4.3340000      3.0646008    
  2  FE              6.8526557      3.0646008      3.0646008      3.0646008    
  3  O               7.1871259      3.7533541      3.7533541      2.1670000 *  
  4  O               7.1871259      3.7533541      3.7533541      4.8455593    
  5  O               4.8455593      7.8132296      6.5010000      3.7533541    
  6  O               8.9347699      2.1670000 *    4.8455593      3.7533541    
  7  O               4.8455593      4.8455593      2.1670000 *    3.7533541    
  8  O               6.5010000      4.8455593      4.8455593      2.1670000 *  
  9  O               2.1670000 *    7.8132296      4.8455593      4.8455593    
 10  O               7.8132296      2.1670000 *    2.1670000 *    4.8455593    
 11  O               4.8455593      6.5010000      4.8455593      2.1670000 *  
 12  O               4.8455593      6.5010000      4.8455593      4.8455593    
 13  MG              6.1292016      9.6911186      8.6680000      5.3080443    
 14  MG              8.6680000      4.3340000      6.1292016      3.0646008    
 15  MG              6.1292016      7.5067082      6.1292016      3.0646008    
 16  MG              6.1292016      7.5067082      6.1292016      6.8526557    
 17  MG              0.0000000      9.6911186      6.1292016      6.8526557    
 18  MG              9.6911186      0.0000000      4.3340000      5.3080443    
 19  MG              6.1292016      4.3340000      0.0000000      5.3080443    
 20  MG              6.8526557      5.3080443      5.3080443      0.0000000    
 21  MG              6.8526557      5.3080443      5.3080443      4.3340000    
 22  MG              3.0646008      8.1081716      5.3080443      4.3340000    
 23  MG              3.0646008      8.1081716      5.3080443      6.1292016    
 24  MG              8.1081716      3.0646008      3.0646008      4.3340000    
 25  MG              8.1081716      3.0646008      3.0646008      6.1292016    
 26  MG              5.3080443      8.1081716      6.8526557      3.0646008    
 27  MG              5.3080443      8.1081716      6.8526557      5.3080443    
 28  MG              9.1938024      3.0646008      5.3080443      3.0646008    
 29  MG              9.1938024      3.0646008      5.3080443      5.3080443    
 30  MG              5.3080443      5.3080443      3.0646008      3.0646008    
 31  MG              5.3080443      5.3080443      3.0646008      5.3080443    
 32  MG              6.8526557      6.8526557      6.8526557      3.0646008    
 33  MG              3.0646008      9.1938024      6.8526557      5.3080443    
 34  MG             11.0495753      3.0646008      6.8526557      5.3080443    
 35  MG              8.1081716      5.3080443      5.3080443      3.0646008    
 36  MG              8.1081716      5.3080443      5.3080443      6.8526557    
 37  MG              3.0646008      6.8526557      3.0646008      5.3080443    
 38  MG              9.1938024      3.0646008      3.0646008      6.8526557    

                    MG             MG             MG             MG        

  1  FE              3.0646008      3.0646008      3.0646008      5.3080443    
  2  FE              3.0646008      5.3080443      5.3080443      3.0646008    
  3  O               4.8455593      4.8455593      6.5010000      2.1670000 *  
  4  O               2.1670000 *    6.5010000      4.8455593      4.8455593    
  5  O               3.7533541      3.7533541      3.7533541      7.1871259    
  6  O               3.7533541      7.1871259      7.1871259      3.7533541    
  7  O               3.7533541      3.7533541      3.7533541      3.7533541    
  8  O               2.1670000 *    4.8455593      4.8455593      4.8455593    
  9  O               4.8455593      2.1670000 *    2.1670000 *    6.5010000    
 10  O               4.8455593      6.5010000      6.5010000      2.1670000 *  
 11  O               4.8455593      2.1670000 *    4.8455593      4.8455593    
 12  O               2.1670000 *    4.8455593      2.1670000 *    6.5010000    
 13  MG              5.3080443      5.3080443      5.3080443      9.1938024    
 14  MG              3.0646008      6.8526557      6.8526557      5.3080443    
 15  MG              6.8526557      3.0646008      6.8526557      5.3080443    
 16  MG              3.0646008      6.8526557      3.0646008      8.1081716    
 17  MG              6.8526557      3.0646008      3.0646008      8.1081716    
 18  MG              5.3080443      8.1081716      8.1081716      3.0646008    
 19  MG              5.3080443      5.3080443      5.3080443      3.0646008    
 20  MG              4.3340000      4.3340000      6.1292016      4.3340000    
 21  MG              0.0000000      6.1292016      4.3340000      6.1292016    
 22  MG              6.1292016      0.0000000      4.3340000      6.1292016    
 23  MG              4.3340000      4.3340000      0.0000000      7.5067082    
 24  MG              6.1292016      6.1292016      7.5067082      0.0000000    
 25  MG              4.3340000      7.5067082      6.1292016      4.3340000    
 26  MG              5.3080443      3.0646008      5.3080443      6.8526557    
 27  MG              3.0646008      5.3080443      3.0646008      8.1081716    
 28  MG              5.3080443      6.8526557      8.1081716      3.0646008    
 29  MG              3.0646008      8.1081716      6.8526557      5.3080443    
 30  MG              5.3080443      3.0646008      5.3080443      3.0646008    
 31  MG              3.0646008      5.3080443      3.0646008      5.3080443    
 32  MG              3.0646008      5.3080443      5.3080443      6.8526557    
 33  MG              5.3080443      3.0646008      3.0646008      8.1081716    
 34  MG              5.3080443      9.1938024      9.1938024      5.3080443    
 35  MG              6.8526557      5.3080443      8.1081716      3.0646008    
 36  MG              3.0646008      8.1081716      5.3080443      6.8526557    
 37  MG              5.3080443      3.0646008      3.0646008      5.3080443    
 38  MG              6.8526557      8.1081716      8.1081716      3.0646008    

                    MG             MG             MG             MG        

  1  FE              5.3080443      3.0646008      3.0646008      5.3080443    
  2  FE              3.0646008      5.3080443      5.3080443      3.0646008    
  3  O               4.8455593      4.8455593      6.5010000      2.1670000 *  
  4  O               2.1670000 *    6.5010000      4.8455593      4.8455593    
  5  O               7.1871259      2.1670000 *    2.1670000 *    6.5010000    
  6  O               3.7533541      6.5010000      6.5010000      2.1670000 *  
  7  O               3.7533541      4.8455593      4.8455593      4.8455593    
  8  O               4.8455593      3.7533541      3.7533541      3.7533541    
  9  O               6.5010000      3.7533541      3.7533541      7.1871259    
 10  O               2.1670000 *    7.1871259      7.1871259      3.7533541    
 11  O               6.5010000      2.1670000 *    4.8455593      4.8455593    
 12  O               4.8455593      4.8455593      2.1670000 *    6.5010000    
 13  MG              9.1938024      3.0646008      3.0646008      8.1081716    
 14  MG              5.3080443      5.3080443      5.3080443      3.0646008    
 15  MG              8.1081716      3.0646008      6.8526557      5.3080443    
 16  MG              5.3080443      6.8526557      3.0646008      8.1081716    
 17  MG              8.1081716      5.3080443      5.3080443      9.1938024    
 18  MG              3.0646008      8.1081716      8.1081716      3.0646008    
 19  MG              3.0646008      6.8526557      6.8526557      5.3080443    
 20  MG              6.1292016      3.0646008      5.3080443      3.0646008    
 21  MG              4.3340000      5.3080443      3.0646008      5.3080443    
 22  MG              7.5067082      3.0646008      5.3080443      6.8526557    
 23  MG              6.1292016      5.3080443      3.0646008      8.1081716    
 24  MG              4.3340000      6.8526557      8.1081716      3.0646008    
 25  MG              0.0000000      8.1081716      6.8526557      5.3080443    
 26  MG              8.1081716      0.0000000      4.3340000      6.1292016    
 27  MG              6.8526557      4.3340000      0.0000000      7.5067082    
 28  MG              5.3080443      6.1292016      7.5067082      0.0000000    
 29  MG              3.0646008      7.5067082      6.1292016      4.3340000    
 30  MG              5.3080443      4.3340000      6.1292016      4.3340000    
 31  MG              3.0646008      6.1292016      4.3340000      6.1292016    
 32  MG              6.8526557      3.0646008      3.0646008      5.3080443    
 33  MG              8.1081716      3.0646008      3.0646008      8.1081716    
 34  MG              5.3080443      8.1081716      8.1081716      3.0646008    
 35  MG              6.8526557      5.3080443      8.1081716      3.0646008    
 36  MG              3.0646008      8.1081716      5.3080443      6.8526557    
 37  MG              5.3080443      5.3080443      5.3080443      6.8526557    
 38  MG              3.0646008      9.1938024      9.1938024      5.3080443    

                    MG             MG             MG             MG        

  1  FE              5.3080443      3.0646008      3.0646008      3.0646008    
  2  FE              3.0646008      3.0646008      3.0646008      4.3340000    
  3  O               4.8455593      2.1670000 *    4.8455593      4.8455593    
  4  O               2.1670000 *    4.8455593      2.1670000 *    4.8455593    
  5  O               6.5010000      4.8455593      4.8455593      2.1670000 *  
  6  O               2.1670000 *    4.8455593      4.8455593      4.8455593    
  7  O               4.8455593      2.1670000 *    2.1670000 *    4.8455593    
  8  O               3.7533541      3.7533541      3.7533541      2.1670000 *  
  9  O               7.1871259      3.7533541      3.7533541      4.8455593    
 10  O               3.7533541      3.7533541      3.7533541      6.5010000    
 11  O               6.5010000      2.1670000 *    4.8455593      3.7533541    
 12  O               4.8455593      4.8455593      2.1670000 *    3.7533541    
 13  MG              8.1081716      6.8526557      6.8526557      3.0646008    
 14  MG              3.0646008      5.3080443      5.3080443      3.0646008    
 15  MG              8.1081716      3.0646008      6.8526557      5.3080443    
 16  MG              5.3080443      6.8526557      3.0646008      5.3080443    
 17  MG              9.1938024      5.3080443      5.3080443      6.8526557    
 18  MG              3.0646008      5.3080443      5.3080443      6.8526557    
 19  MG              5.3080443      3.0646008      3.0646008      6.8526557    
 20  MG              5.3080443      3.0646008      5.3080443      3.0646008    
 21  MG              3.0646008      5.3080443      3.0646008      3.0646008    
 22  MG              8.1081716      3.0646008      5.3080443      5.3080443    
 23  MG              6.8526557      5.3080443      3.0646008      5.3080443    
 24  MG              5.3080443      3.0646008      5.3080443      6.8526557    
 25  MG              3.0646008      5.3080443      3.0646008      6.8526557    
 26  MG              7.5067082      4.3340000      6.1292016      3.0646008    
 27  MG              6.1292016      6.1292016      4.3340000      3.0646008    
 28  MG              4.3340000      4.3340000      6.1292016      5.3080443    
 29  MG              0.0000000      6.1292016      4.3340000      5.3080443    
 30  MG              6.1292016      0.0000000      4.3340000      5.3080443    
 31  MG              4.3340000      4.3340000      0.0000000      5.3080443    
 32  MG              5.3080443      5.3080443      5.3080443      0.0000000    
 33  MG              8.1081716      5.3080443      5.3080443      4.3340000    
 34  MG              3.0646008      6.8526557      6.8526557      6.1292016    
 35  MG              6.8526557      3.0646008      6.8526557      6.1292016    
 36  MG              3.0646008      6.8526557      3.0646008      6.1292016    
 37  MG              6.8526557      3.0646008      3.0646008      6.1292016    
 38  MG              5.3080443      5.3080443      5.3080443      8.6680000    

                    MG             MG             MG             MG        

  1  FE              3.0646008      6.8526557      5.3080443      5.3080443    
  2  FE              6.1292016      4.3340000      4.3340000      4.3340000    
  3  O               6.5010000      4.8455593      2.1670000 *    6.5010000    
  4  O               6.5010000      4.8455593      6.5010000      2.1670000 *  
  5  O               2.1670000 *    7.8132296      6.5010000      6.5010000    
  6  O               7.8132296      2.1670000 *    4.8455593      4.8455593    
  7  O               4.8455593      6.5010000      4.8455593      4.8455593    
  8  O               4.8455593      4.8455593      4.8455593      4.8455593    
  9  O               2.1670000 *    8.9347699      6.5010000      6.5010000    
 10  O               7.8132296      4.8455593      4.8455593      4.8455593    
 11  O               3.7533541      7.1871259      3.7533541      7.1871259    
 12  O               3.7533541      7.1871259      7.1871259      3.7533541    
 13  MG              3.0646008      9.1938024      8.1081716      8.1081716    
 14  MG              6.8526557      3.0646008      5.3080443      5.3080443    
 15  MG              5.3080443      8.1081716      3.0646008      9.1938024    
 16  MG              5.3080443      8.1081716      9.1938024      3.0646008    
 17  MG              3.0646008     11.0495753      8.1081716      8.1081716    
 18  MG              9.1938024      3.0646008      5.3080443      5.3080443    
 19  MG              6.8526557      6.8526557      5.3080443      5.3080443    
 20  MG              5.3080443      5.3080443      3.0646008      6.8526557    
 21  MG              5.3080443      5.3080443      6.8526557      3.0646008    
 22  MG              3.0646008      9.1938024      5.3080443      8.1081716    
 23  MG              3.0646008      9.1938024      8.1081716      5.3080443    
 24  MG              8.1081716      5.3080443      3.0646008      6.8526557    
 25  MG              8.1081716      5.3080443      6.8526557      3.0646008    
 26  MG              3.0646008      8.1081716      5.3080443      8.1081716    
 27  MG              3.0646008      8.1081716      8.1081716      5.3080443    
 28  MG              8.1081716      3.0646008      3.0646008      6.8526557    
 29  MG              8.1081716      3.0646008      6.8526557      3.0646008    
 30  MG              5.3080443      6.8526557      3.0646008      6.8526557    
 31  MG              5.3080443      6.8526557      6.8526557      3.0646008    
 32  MG              4.3340000      6.1292016      6.1292016      6.1292016    
 33  MG              0.0000000      9.6911186      7.5067082      7.5067082    
 34  MG              9.6911186      0.0000000      6.1292016      6.1292016    
 35  MG              7.5067082      6.1292016      0.0000000      8.6680000    
 36  MG              7.5067082      6.1292016      8.6680000      0.0000000    
 37  MG              4.3340000      8.6680000      6.1292016      6.1292016    
 38  MG              9.6911186      6.1292016      6.1292016      6.1292016    

                    MG             MG        

  1  FE              3.0646008      6.8526557    
  2  FE              4.3340000      4.3340000    
  3  O               4.8455593      4.8455593    
  4  O               4.8455593      4.8455593    
  5  O               4.8455593      8.9347699    
  6  O               6.5010000      4.8455593    
  7  O               2.1670000 *    4.8455593    
  8  O               4.8455593      6.5010000    
  9  O               2.1670000 *    7.8132296    
 10  O               4.8455593      2.1670000 *  
 11  O               3.7533541      7.1871259    
 12  O               3.7533541      7.1871259    
 13  MG              6.8526557     11.0495753    
 14  MG              6.8526557      6.8526557    
 15  MG              5.3080443      8.1081716    
 16  MG              5.3080443      8.1081716    
 17  MG              3.0646008      9.1938024    
 18  MG              6.8526557      3.0646008    
 19  MG              3.0646008      3.0646008    
 20  MG              5.3080443      6.8526557    
 21  MG              5.3080443      6.8526557    
 22  MG              3.0646008      8.1081716    
 23  MG              3.0646008      8.1081716    
 24  MG              5.3080443      3.0646008    
 25  MG              5.3080443      3.0646008    
 26  MG              5.3080443      9.1938024    
 27  MG              5.3080443      9.1938024    
 28  MG              6.8526557      5.3080443    
 29  MG              6.8526557      5.3080443    
 30  MG              3.0646008      5.3080443    
 31  MG              3.0646008      5.3080443    
 32  MG              6.1292016      8.6680000    
 33  MG              4.3340000      9.6911186    
 34  MG              8.6680000      6.1292016    
 35  MG              6.1292016      6.1292016    
 36  MG              6.1292016      6.1292016    
 37  MG              0.0000000      6.1292016    
 38  MG              6.1292016      0.0000000    

  * ... LESS THAN  3.000


     ATOMIC BASIS SET
     ----------------
 THE CONTRACTED PRIMITIVE FUNCTIONS HAVE BEEN UNNORMALIZED
 THE CONTRACTED BASIS FUNCTIONS ARE NOW NORMALIZED TO UNITY

  SHELL TYPE  PRIMITIVE        EXPONENT          CONTRACTION COEFFICIENT(S)

 FE        

      1   S       1             6.4220000   -0.392788225868
      1   S       2             1.8260000    0.771264350793
      1   S       3             0.7135000    0.492022832403

      2   S       4             6.4220000    0.178687707070
      2   S       5             1.8260000   -0.419403216594
      2   S       6             0.7135000   -0.456818518074
      2   S       7             0.1021000    1.103504843661

      3   S       8             0.0363000    1.000000000000

      4   P       9            19.4800000   -0.047028200021
      4   P      10             2.3890000    0.624884100275
      4   P      11             0.7795000    0.472254200208

      5   P      12             0.0740000    1.000000000000

      6   P      13             0.0220000    1.000000000000

      7   D      14            37.0800000    0.032900002682
      7   D      15            10.1000000    0.178741814570
      7   D      16             3.2200000    0.448765736581
      7   D      17             0.9628000    0.587636147901

      8   D      18             0.2262000    1.000000000000

 FE        

      9   S      19             6.4220000   -0.392788225868
      9   S      20             1.8260000    0.771264350793
      9   S      21             0.7135000    0.492022832403

     10   S      22             6.4220000    0.178687707070
     10   S      23             1.8260000   -0.419403216594
     10   S      24             0.7135000   -0.456818518074
     10   S      25             0.1021000    1.103504843661

     11   S      26             0.0363000    1.000000000000

     12   P      27            19.4800000   -0.047028200021
     12   P      28             2.3890000    0.624884100275
     12   P      29             0.7795000    0.472254200208

     13   P      30             0.0740000    1.000000000000

     14   P      31             0.0220000    1.000000000000

     15   D      32            37.0800000    0.032900002682
     15   D      33            10.1000000    0.178741814570
     15   D      34             3.2200000    0.448765736581
     15   D      35             0.9628000    0.587636147901

     16   D      36             0.2262000    1.000000000000

 O         

     17   S      37          5484.6717000    0.001831099806
     17   S      38           825.2349500    0.013950098518
     17   S      39           188.0469600    0.068445092731
     17   S      40            52.9645000    0.232714275284
     17   S      41            16.8975700    0.470192950063
     17   S      42             5.7996353    0.358520861923

     18   L      43            15.5396160   -0.110777503825    0.070874299543
     18   L      44             3.5999336   -0.148026305111    0.339752797811
     18   L      45             1.0137618    1.130767039045    0.727158595314

     19   L      46             0.2700058    1.000000000000    1.000000000000

     20   D      47             0.8000000    1.000000000000

 O         

     21   S      48          5484.6717000    0.001831099806
     21   S      49           825.2349500    0.013950098518
     21   S      50           188.0469600    0.068445092731
     21   S      51            52.9645000    0.232714275284
     21   S      52            16.8975700    0.470192950063
     21   S      53             5.7996353    0.358520861923

     22   L      54            15.5396160   -0.110777503825    0.070874299543
     22   L      55             3.5999336   -0.148026305111    0.339752797811
     22   L      56             1.0137618    1.130767039045    0.727158595314

     23   L      57             0.2700058    1.000000000000    1.000000000000

     24   D      58             0.8000000    1.000000000000

 O         

     25   S      59          5484.6717000    0.001831099806
     25   S      60           825.2349500    0.013950098518
     25   S      61           188.0469600    0.068445092731
     25   S      62            52.9645000    0.232714275284
     25   S      63            16.8975700    0.470192950063
     25   S      64             5.7996353    0.358520861923

     26   L      65            15.5396160   -0.110777503825    0.070874299543
     26   L      66             3.5999336   -0.148026305111    0.339752797811
     26   L      67             1.0137618    1.130767039045    0.727158595314

     27   L      68             0.2700058    1.000000000000    1.000000000000

     28   D      69             0.8000000    1.000000000000

 O         

     29   S      70          5484.6717000    0.001831099806
     29   S      71           825.2349500    0.013950098518
     29   S      72           188.0469600    0.068445092731
     29   S      73            52.9645000    0.232714275284
     29   S      74            16.8975700    0.470192950063
     29   S      75             5.7996353    0.358520861923

     30   L      76            15.5396160   -0.110777503825    0.070874299543
     30   L      77             3.5999336   -0.148026305111    0.339752797811
     30   L      78             1.0137618    1.130767039045    0.727158595314

     31   L      79             0.2700058    1.000000000000    1.000000000000

     32   D      80             0.8000000    1.000000000000

 O         

     33   S      81          5484.6717000    0.001831099806
     33   S      82           825.2349500    0.013950098518
     33   S      83           188.0469600    0.068445092731
     33   S      84            52.9645000    0.232714275284
     33   S      85            16.8975700    0.470192950063
     33   S      86             5.7996353    0.358520861923

     34   L      87            15.5396160   -0.110777503825    0.070874299543
     34   L      88             3.5999336   -0.148026305111    0.339752797811
     34   L      89             1.0137618    1.130767039045    0.727158595314

     35   L      90             0.2700058    1.000000000000    1.000000000000

     36   D      91             0.8000000    1.000000000000

 O         

     37   S      92          5484.6717000    0.001831099806
     37   S      93           825.2349500    0.013950098518
     37   S      94           188.0469600    0.068445092731
     37   S      95            52.9645000    0.232714275284
     37   S      96            16.8975700    0.470192950063
     37   S      97             5.7996353    0.358520861923

     38   L      98            15.5396160   -0.110777503825    0.070874299543
     38   L      99             3.5999336   -0.148026305111    0.339752797811
     38   L     100             1.0137618    1.130767039045    0.727158595314

     39   L     101             0.2700058    1.000000000000    1.000000000000

     40   D     102             0.8000000    1.000000000000

 O         

     41   S     103          5484.6717000    0.001831099806
     41   S     104           825.2349500    0.013950098518
     41   S     105           188.0469600    0.068445092731
     41   S     106            52.9645000    0.232714275284
     41   S     107            16.8975700    0.470192950063
     41   S     108             5.7996353    0.358520861923

     42   L     109            15.5396160   -0.110777503825    0.070874299543
     42   L     110             3.5999336   -0.148026305111    0.339752797811
     42   L     111             1.0137618    1.130767039045    0.727158595314

     43   L     112             0.2700058    1.000000000000    1.000000000000

     44   D     113             0.8000000    1.000000000000

 O         

     45   S     114          5484.6717000    0.001831099806
     45   S     115           825.2349500    0.013950098518
     45   S     116           188.0469600    0.068445092731
     45   S     117            52.9645000    0.232714275284
     45   S     118            16.8975700    0.470192950063
     45   S     119             5.7996353    0.358520861923

     46   L     120            15.5396160   -0.110777503825    0.070874299543
     46   L     121             3.5999336   -0.148026305111    0.339752797811
     46   L     122             1.0137618    1.130767039045    0.727158595314

     47   L     123             0.2700058    1.000000000000    1.000000000000

     48   D     124             0.8000000    1.000000000000

 O         

     49   S     125          5484.6717000    0.001831099806
     49   S     126           825.2349500    0.013950098518
     49   S     127           188.0469600    0.068445092731
     49   S     128            52.9645000    0.232714275284
     49   S     129            16.8975700    0.470192950063
     49   S     130             5.7996353    0.358520861923

     50   L     131            15.5396160   -0.110777503825    0.070874299543
     50   L     132             3.5999336   -0.148026305111    0.339752797811
     50   L     133             1.0137618    1.130767039045    0.727158595314

     51   L     134             0.2700058    1.000000000000    1.000000000000

     52   D     135             0.8000000    1.000000000000

 O         

     53   S     136          5484.6717000    0.001831099806
     53   S     137           825.2349500    0.013950098518
     53   S     138           188.0469600    0.068445092731
     53   S     139            52.9645000    0.232714275284
     53   S     140            16.8975700    0.470192950063
     53   S     141             5.7996353    0.358520861923

     54   L     142            15.5396160   -0.110777503825    0.070874299543
     54   L     143             3.5999336   -0.148026305111    0.339752797811
     54   L     144             1.0137618    1.130767039045    0.727158595314

     55   L     145             0.2700058    1.000000000000    1.000000000000

     56   D     146             0.8000000    1.000000000000

 MG        

 MG        

 MG        

 MG        

 MG        

 MG        

 MG        

 MG        

 MG        

 MG        

 MG        

 MG        

 MG        

 MG        

 MG        

 MG        

 MG        

 MG        

 MG        

 MG        

 MG        

 MG        

 MG        

 MG        

 MG        

 MG        

 TOTAL NUMBER OF BASIS SET SHELLS             =   56
 NUMBER OF CARTESIAN GAUSSIAN BASIS FUNCTIONS =  198
 NOTE: THIS RUN WILL RESTRICT THE MO VARIATION SPACE TO SPHERICAL HARMONICS.
 THE NUMBER OF ORBITALS KEPT IN THE VARIATIONAL SPACE WILL BE PRINTED LATER.
 NUMBER OF ELECTRONS                          =  408
 CHARGE OF MOLECULE                           =   36
 SPIN MULTIPLICITY                            =    9
 NUMBER OF OCCUPIED ORBITALS (ALPHA)          =  208
 NUMBER OF OCCUPIED ORBITALS (BETA )          =  200
 TOTAL NUMBER OF ATOMS                        =   38
 THE NUCLEAR REPULSION ENERGY IS    11682.2000662656
 NOTE THIS RUN IS USING CORE POTENTIALS, AND THE NUMBER OF ELECTRONS,
 OCCUPIED ORBITALS, AND NUCLEAR REPULSION ENERGY WILL BE ADJUSTED BELOW
 AFTER REMOVAL OF THE CORE CHARGES.

     $CONTRL OPTIONS
     ---------------
 SCFTYP=UHF          RUNTYP=ENERGY       EXETYP=RUN     
 MPLEVL=       0     CITYP =NONE         CCTYP =NONE         VBTYP =NONE    
 MULT  =       9     ICHARG=      36     NZVAR =       0     COORD =UNIQUE  
 PP    =READ         RELWFN=NONE         LOCAL =NONE         NUMGRD=       F
 ISPHER=       1     NOSYM =       0     MAXIT =     200     UNITS =ANGS    
 PLTORB=       F     MOLPLT=       F     AIMPAC=       F     FRIEND=        
 NPRINT=       7     IREST =       0     GEOM  =INPUT   
 NORMF =       0     NORMP =       0     ITOL  =      20     ICUT  =       9
 INTTYP=BEST         GRDTYP=BEST         QMTTOL= 1.0E-06

     $SYSTEM OPTIONS
     ---------------
  REPLICATED MEMORY=     1000000 WORDS (ON EVERY NODE).
 DISTRIBUTED MEMDDI=           0 MILLION WORDS IN AGGREGATE,
 MEMDDI DISTRIBUTED OVER   8 PROCESSORS IS           0 WORDS/PROCESSOR.
 TOTAL MEMORY REQUESTED ON EACH PROCESSOR=     1000000 WORDS.
 TIMLIM=      525600.00 MINUTES, OR   365.00 DAYS.
 PARALL= T  BALTYP=  NXTVAL  KDIAG=    0  COREFL= F

          --------------
          ECP POTENTIALS
          --------------

 PARAMETERS FOR "FE-ECP  " ON ATOM    1 WITH ZCORE  10 AND LMAX  2 ARE
 FOR L= 2      COEFF    N           ZETA
    1      -10.00000    1      392.61498
    2      -63.26675    2       71.17570
    3      -10.96133    2       17.73203
 FOR L= 0      COEFF    N           ZETA
    1        3.00000    0      126.05719
    2       18.17291    1      138.12643
    3      339.12312    2       54.20989
    4      317.10680    2        9.28380
    5     -207.34216    2        8.62891
 FOR L= 1      COEFF    N           ZETA
    1        5.00000    0       83.17595
    2        5.95359    1      106.05599
    3      294.26655    2       42.82849
    4      154.42446    2        8.77018
    5      -95.31642    2        8.03978

 PARAMETERS FOR "FE-ECP  " ON ATOM    2 ARE THE SAME AS ATOM   1

 PARAMETERS FOR "MG-ECP  " ON ATOM   13 WITH ZCORE  10 AND LMAX  2 ARE
 FOR L= 2      COEFF    N           ZETA
    1      -10.00000    1      237.54848
    2      -55.89940    2       47.75204
    3      -20.13920    2       10.78379
    4       -7.06791    2        3.19921
    5       -0.81331    2        1.06370
 FOR L= 0      COEFF    N           ZETA
    1        3.00000    0      348.30086
    2       44.00757    1       59.46801
    3      107.38613    2       19.07676
    4       35.82891    2        5.29656
    5       10.11434    2        1.38674
 FOR L= 1      COEFF    N           ZETA
    1        5.00000    0     1256.87391
    2      117.10537    1      189.86088
    3      420.59721    2       54.69496
    4      107.61230    2       13.89901
    5       29.10026    2        3.95972
    6        7.08756    2        1.25528

 PARAMETERS FOR "MG-ECP  " ON ATOM   14 ARE THE SAME AS ATOM  13

 PARAMETERS FOR "MG-ECP  " ON ATOM   15 ARE THE SAME AS ATOM  13

 PARAMETERS FOR "MG-ECP  " ON ATOM   16 ARE THE SAME AS ATOM  13

 PARAMETERS FOR "MG-ECP  " ON ATOM   17 ARE THE SAME AS ATOM  13

 PARAMETERS FOR "MG-ECP  " ON ATOM   18 ARE THE SAME AS ATOM  13

 PARAMETERS FOR "MG-ECP  " ON ATOM   19 ARE THE SAME AS ATOM  13

 PARAMETERS FOR "MG-ECP  " ON ATOM   20 ARE THE SAME AS ATOM  13

 PARAMETERS FOR "MG-ECP  " ON ATOM   21 ARE THE SAME AS ATOM  13

 PARAMETERS FOR "MG-ECP  " ON ATOM   22 ARE THE SAME AS ATOM  13

 PARAMETERS FOR "MG-ECP  " ON ATOM   23 ARE THE SAME AS ATOM  13

 PARAMETERS FOR "MG-ECP  " ON ATOM   24 ARE THE SAME AS ATOM  13

 PARAMETERS FOR "MG-ECP  " ON ATOM   25 ARE THE SAME AS ATOM  13

 PARAMETERS FOR "MG-ECP  " ON ATOM   26 ARE THE SAME AS ATOM  13

 PARAMETERS FOR "MG-ECP  " ON ATOM   27 ARE THE SAME AS ATOM  13

 PARAMETERS FOR "MG-ECP  " ON ATOM   28 ARE THE SAME AS ATOM  13

 PARAMETERS FOR "MG-ECP  " ON ATOM   29 ARE THE SAME AS ATOM  13

 PARAMETERS FOR "MG-ECP  " ON ATOM   30 ARE THE SAME AS ATOM  13

 PARAMETERS FOR "MG-ECP  " ON ATOM   31 ARE THE SAME AS ATOM  13

 PARAMETERS FOR "MG-ECP  " ON ATOM   32 ARE THE SAME AS ATOM  13

 PARAMETERS FOR "MG-ECP  " ON ATOM   33 ARE THE SAME AS ATOM  13

 PARAMETERS FOR "MG-ECP  " ON ATOM   34 ARE THE SAME AS ATOM  13

 PARAMETERS FOR "MG-ECP  " ON ATOM   35 ARE THE SAME AS ATOM  13

 PARAMETERS FOR "MG-ECP  " ON ATOM   36 ARE THE SAME AS ATOM  13

 PARAMETERS FOR "MG-ECP  " ON ATOM   37 ARE THE SAME AS ATOM  13

 PARAMETERS FOR "MG-ECP  " ON ATOM   38 ARE THE SAME AS ATOM  13

 THE ECP RUN REMOVES  280 CORE ELECTRONS, AND THE SAME NUMBER OF PROTONS.
 NUMBER OF ELECTRONS KEPT IN THE CALCULATION IS =  128
 NUMBER OF OCCUPIED ORBITALS (ALPHA) KEPT IS    =   68
 NUMBER OF OCCUPIED ORBITALS (BETA ) KEPT IS    =   60
 THE ADJUSTED NUCLEAR REPULSION ENERGY=     1856.7114471631
          ECP ANGULAR INTS.........     0.00 SECONDS

          ----------------
          PROPERTIES INPUT
          ----------------

     MOMENTS            FIELD           POTENTIAL          DENSITY
 IEMOM =       1   IEFLD =       0   IEPOT =       0   IEDEN =       0
 WHERE =COMASS     WHERE =NUCLEI     WHERE =NUCLEI     WHERE =NUCLEI  
 OUTPUT=BOTH       OUTPUT=BOTH       OUTPUT=BOTH       OUTPUT=BOTH    
 IEMINT=       0   IEFINT=       0                     IEDINT=       0
                                                       MORB  =       0
          EXTRAPOLATION IN EFFECT
          LEVEL SHIFTING IN EFFECT
          DIIS IN EFFECT
 ORBITAL PRINTING OPTION: NPREO=   1 198   2   1

     -------------------------------
     INTEGRAL TRANSFORMATION OPTIONS
     -------------------------------
     NWORD  =       0     CUTOFF = 1.0E-09
     MPTRAN =       0     DIRTRF =       T
     AOINTS =DUP     

          ----------------------
          INTEGRAL INPUT OPTIONS
          ----------------------
 NOPK  =       1 NORDER=       0 SCHWRZ=       T

     ------------------------------------------
     THE POINT GROUP IS C1 , NAXIS= 0, ORDER= 1
     ------------------------------------------

 -- VARIATIONAL SPACE WILL BE RESTRICTED TO PURE SPHERICAL HARMONICS ONLY --
 AFTER EXCLUDING CONTAMINANT COMBINATIONS FROM THE CARTESIAN GAUSSIAN BASIS
 SET, THE NUMBER OF SPHERICAL HARMONICS KEPT IN THE VARIATION SPACE IS  184

     DIMENSIONS OF THE SYMMETRY SUBSPACES ARE
 A   =  184

 ..... DONE SETTING UP THE RUN .....
 ON NODE 0, STEP CPU TIME =     0.03 TOTAL CPU TIME =        0.0 (    0.0 MIN)
 TOTAL WALL CLOCK TIME=        0.0 SECONDS, CPU UTILIZATION IS 100.00%

          ********************
          1 ELECTRON INTEGRALS
          ********************
 TIME TO DO ORDINARY INTEGRALS=      0.00
 TIME TO DO      ECP INTEGRALS=      0.45
 ...... END OF ONE-ELECTRON INTEGRALS ......
 ON NODE 0, STEP CPU TIME =     0.45 TOTAL CPU TIME =        0.5 (    0.0 MIN)
 TOTAL WALL CLOCK TIME=        0.0 SECONDS, CPU UTILIZATION IS 100.00%

          -------------
          GUESS OPTIONS
          -------------
          GUESS =HUCKEL            NORB  =       0          NORDER=       0
          MIX   =       F          PRTMO =       F          PUNMO =       F
          TOLZ  = 1.0E-08          TOLE  = 1.0E-05
          SYMDEN=       F          PURIFY=       F

 INITIAL GUESS ORBITALS GENERATED BY HUCKEL   ROUTINE.
 HUCKEL GUESS REQUIRES    350000 WORDS.

 STATISTICS FOR GENERATION OF SYMMETRY ORBITAL -Q- MATRIX
 NUMBER OF CARTESIAN ATOMIC ORBITALS=        198
 NUMBER OF SPHERICAL CONTAMINANTS DROPPED=    14
 NUMBER OF LINEARLY DEPENDENT MOS DROPPED=     0
 TOTAL NUMBER OF MOS IN VARIATION SPACE=     184

 SYMMETRIES FOR INITIAL GUESS ORBITALS FOLLOW.  ALPHA SET(S).
    68 ORBITALS ARE OCCUPIED (   18 CORE ORBITALS).
    19=A       20=A       21=A       22=A       23=A       24=A       25=A   
    26=A       27=A       28=A       29=A       30=A       31=A       32=A   
    33=A       34=A       35=A       36=A       37=A       38=A       39=A   
    40=A       41=A       42=A       43=A       44=A       45=A       46=A   
    47=A       48=A       49=A       50=A       51=A       52=A       53=A   
    54=A       55=A       56=A       57=A       58=A       59=A       60=A   
    61=A       62=A       63=A       64=A       65=A       66=A       67=A   
    68=A       69=A       70=A       71=A       72=A       73=A       74=A   
    75=A       76=A       77=A       78=A   

 SYMMETRIES FOR INITIAL GUESS ORBITALS FOLLOW.   BETA SET(S).
    60 ORBITALS ARE OCCUPIED (   18 CORE ORBITALS).
    19=A       20=A       21=A       22=A       23=A       24=A       25=A   
    26=A       27=A       28=A       29=A       30=A       31=A       32=A   
    33=A       34=A       35=A       36=A       37=A       38=A       39=A   
    40=A       41=A       42=A       43=A       44=A       45=A       46=A   
    47=A       48=A       49=A       50=A       51=A       52=A       53=A   
    54=A       55=A       56=A       57=A       58=A       59=A       60=A   
    61=A       62=A       63=A       64=A       65=A       66=A       67=A   
    68=A       69=A       70=A   
 ...... END OF INITIAL ORBITAL SELECTION ......
 ON NODE 0, STEP CPU TIME =     0.18 TOTAL CPU TIME =        0.7 (    0.0 MIN)
 TOTAL WALL CLOCK TIME=        0.0 SECONDS, CPU UTILIZATION IS 100.00%

                    ----------------------
                    AO INTEGRAL TECHNOLOGY
                    ----------------------
     S,P,L SHELL ROTATED AXIS INTEGRALS, REPROGRAMMED BY
        KAZUYA ISHIMURA (IMS) AND JOSE SIERRA (SYNSTAR).
     S,P,D,L SHELL ROTATED AXIS INTEGRALS PROGRAMMED BY
        KAZUYA ISHIMURA (INSTITUTE FOR MOLECULAR SCIENCE).
     S,P,D,F,G SHELL TO TOTAL QUARTET ANGULAR MOMENTUM SUM 5,
        ERIC PROGRAM BY GRAHAM FLETCHER (ELORET AND NASA ADVANCED
        SUPERCOMPUTING DIVISION, AMES RESEARCH CENTER).
     S,P,D,F,G,L SHELL GENERAL RYS QUADRATURE PROGRAMMED BY
        MICHEL DUPUIS (PACIFIC NORTHWEST NATIONAL LABORATORY).

          --------------------
          2 ELECTRON INTEGRALS
          --------------------

 DIRECT SCF METHOD SKIPS INTEGRAL STORAGE ON DISK.
 DIRECT TRANSFORMATION SKIPS AO INTEGRAL STORAGE ON DISK.
  ...... END OF TWO-ELECTRON INTEGRALS .....
 ON NODE 0, STEP CPU TIME =     0.00 TOTAL CPU TIME =        0.7 (    0.0 MIN)
 TOTAL WALL CLOCK TIME=        0.0 SECONDS, CPU UTILIZATION IS 100.00%

          ---------------------------
                  UHF SCF CALCULATION
          ---------------------------

     NUCLEAR ENERGY =      1856.7114471631
     MAXIT =200     NPUNCH=  2     MULT=  9
     EXTRAP=T  DAMP=F  SHIFT=T  RSTRCT=F  DIIS=T  SOSCF=F
     DENSITY MATRIX CONV=  2.00E-05
     MEMORY REQUIRED FOR UHF/ROHF STEP=    464436 WORDS.

 DIRECT SCF CALCULATION, SCHWRZ=T   FDIFF=T
 SCHWARZ INEQUALITY OVERHEAD:     17680 INTEGRALS, T=        0.01

                                                                                                                NONZERO     BLOCKS
 ITER EX      TOTAL ENERGY        E CHANGE  DENSITY CHANGE    DIIS ERROR      VIR. SHIFT       DAMPING        INTEGRALS    SKIPPED
   1  0     -935.4070591873  -935.4070591873   3.238961043   0.917910963     0.000000000     1.000000000       70431040     618844
   2  1     -929.4967058991     5.9103532882   0.534659456   1.069195782     2.000000000     1.000000000       70480088     619058
   3  2     -937.9088038671    -8.4120979680   0.632048175   0.885518461     2.000000000     0.000000000       69619524     652321
          * * *   INITIATING DIIS PROCEDURE   * * *
   4  3     -943.2219491474    -5.3131452803   0.611956942   0.300984995     0.000000000     1.000000000       69871909     647700
   5  4     -945.0018092777    -1.7798601303   0.214389910   0.188714927     0.000000000     1.000000000       69854866     645919
   6  5     -945.3735079699    -0.3716986922   0.070966253   0.076916838     0.000000000     1.000000000       69173744     663939
   7  6     -945.4669253835    -0.0934174136   0.041264074   0.031585211     0.000000000     1.000000000       67938227     683480
   8  7     -945.4859793461    -0.0190539625   0.014526390   0.012540574     0.000000000     1.000000000       67197032     693731
   9  8     -945.4885765555    -0.0025972095   0.014768886   0.007247913     0.000000000     1.000000000       64240726     724975
  10  9     -945.4895939324    -0.0010173769   0.005364302   0.002901617     0.000000000     1.000000000       64282738     726082
  11 10     -945.4897727977    -0.0001788653   0.002188648   0.000807278     0.000000000     1.000000000       61817817     746391
  12 11     -945.4897944043    -0.0000216066   0.001427132   0.000725426     0.000000000     1.000000000       57388741     781102
  13 12     -945.4898034013    -0.0000089971   0.002268309   0.000607875     0.000000000     1.000000000       54409657     807064
  14 13     -945.4898156172    -0.0000122159   0.004094680   0.000557868     0.000000000     1.000000000       54543306     809550
  15 14     -945.4898346475    -0.0000190304   0.009638852   0.000460821     0.000000000     1.000000000       55814036     801019
  16 15     -945.4898650330    -0.0000303855   0.006754172   0.000256381     0.000000000     1.000000000       58123896     781966
  17 16     -945.4898744128    -0.0000093798   0.002267961   0.000088462     0.000000000     1.000000000       56838864     792293
  18 17     -945.4898753779    -0.0000009650   0.000575390   0.000033001     0.000000000     1.000000000       53487338     821298
  19 18     -945.4898754449    -0.0000000670   0.000095767   0.000009818     0.000000000     1.000000000       49250970     850194
  20 19     -945.4898754491    -0.0000000043   0.000013436   0.000002917     0.000000000     1.000000000       42653487     898549
  21 20     -945.4898754492    -0.0000000001   0.000001494   0.000001003     0.000000000     1.000000000       35802642     946834

          -----------------
          DENSITY CONVERGED
          -----------------

 FINAL UHF ENERGY IS     -945.4898754492 AFTER  21 ITERATIONS

          --------------------
          SPIN SZ   =    4.000
          S-SQUARED =   20.013
          --------------------

  ----- ALPHA SET ----- 

          ------------
          EIGENVECTORS
          ------------

                      1          2          3          4          5
                  -24.5771   -24.5771   -24.5580   -24.5580   -24.5580
                     A          A          A          A          A   
    1  FE 1  S    0.000373   0.000000   0.000000   0.000000  -0.000290
    2  FE 1  S    0.001206   0.000000   0.000000   0.000001  -0.000983
    3  FE 1  S    0.000628   0.000000   0.000000   0.000002  -0.002867
    4  FE 1  X   -0.000028   0.000016   0.000000   0.000000   0.000008
    5  FE 1  Y    0.000028   0.000016   0.000000   0.000000  -0.000008
    6  FE 1  Z    0.000000   0.000000  -0.000061  -0.000062   0.000000
    7  FE 1  X    0.001249  -0.001385   0.000000   0.000000  -0.000563
    8  FE 1  Y   -0.001249  -0.001385   0.000000   0.000000   0.000563
    9  FE 1  Z    0.000000   0.000000   0.002652   0.002894   0.000002
   10  FE 1  X   -0.000161   0.000191   0.000000   0.000000  -0.000435
   11  FE 1  Y    0.000161   0.000191   0.000000   0.000000   0.000435
   12  FE 1  Z    0.000000   0.000000  -0.000206  -0.000415   0.000000
   13  FE 1 XX   -0.000040   0.000154   0.000000   0.000000  -0.000072
   14  FE 1 YY   -0.000040  -0.000154   0.000000   0.000000  -0.000072
   15  FE 1 ZZ    0.000081   0.000000   0.000000   0.000000   0.000144
   16  FE 1 XY   -0.000016   0.000000   0.000000   0.000000  -0.000006
   17  FE 1 XZ    0.000000   0.000000   0.000007  -0.000015   0.000000
   18  FE 1 YZ    0.000000   0.000000  -0.000007   0.000015   0.000000
   19  FE 1 XX    0.000427  -0.001487   0.000000  -0.000001   0.000687
   20  FE 1 YY    0.000427   0.001487   0.000000  -0.000001   0.000687
   21  FE 1 ZZ   -0.000855   0.000000   0.000000   0.000001  -0.001374
   22  FE 1 XY    0.000104   0.000000   0.000000   0.000000   0.000048
   23  FE 1 XZ    0.000000   0.000000  -0.000055   0.000083   0.000000
   24  FE 1 YZ    0.000000   0.000000   0.000055  -0.000083   0.000000
   25  FE 2  S    0.000373   0.000000   0.000000   0.000000   0.000290
   26  FE 2  S    0.001206   0.000000   0.000000  -0.000001   0.000983
   27  FE 2  S    0.000628   0.000000   0.000000  -0.000002   0.002867
   28  FE 2  X    0.000028   0.000016   0.000000   0.000000   0.000008
   29  FE 2  Y   -0.000028   0.000016   0.000000   0.000000  -0.000008
   30  FE 2  Z    0.000000   0.000000  -0.000061   0.000062   0.000000
   31  FE 2  X   -0.001249  -0.001385   0.000000   0.000000  -0.000563
   32  FE 2  Y    0.001249  -0.001385   0.000000   0.000000   0.000563
   33  FE 2  Z    0.000000   0.000000   0.002656  -0.002891  -0.000002
   34  FE 2  X    0.000161   0.000191   0.000000   0.000000  -0.000435
   35  FE 2  Y   -0.000161   0.000191   0.000000   0.000000   0.000435
   36  FE 2  Z    0.000000   0.000000  -0.000206   0.000414   0.000000
   37  FE 2 XX   -0.000040  -0.000154   0.000000   0.000000   0.000072
   38  FE 2 YY   -0.000040   0.000154   0.000000   0.000000   0.000072
   39  FE 2 ZZ    0.000081   0.000000   0.000000   0.000000  -0.000144
   40  FE 2 XY   -0.000016   0.000000   0.000000   0.000000   0.000006
   41  FE 2 XZ    0.000000   0.000000  -0.000007  -0.000015   0.000000
   42  FE 2 YZ    0.000000   0.000000   0.000007   0.000015   0.000000
   43  FE 2 XX    0.000427   0.001487   0.000000   0.000001  -0.000687
   44  FE 2 YY    0.000427  -0.001487   0.000000   0.000001  -0.000687
   45  FE 2 ZZ   -0.000855   0.000000   0.000000  -0.000001   0.001375
   46  FE 2 XY    0.000104   0.000000   0.000000   0.000000  -0.000048
   47  FE 2 XZ    0.000000   0.000000   0.000055   0.000083   0.000000
   48  FE 2 YZ    0.000000   0.000000  -0.000055  -0.000083   0.000000
   49  O  3  S    0.000210   0.000000  -0.498135   0.497236   0.498366
   50  O  3  S    0.000177   0.000000  -0.010882   0.010773   0.010792
   51  O  3  X   -0.000062  -0.000047   0.000045  -0.000032  -0.000057
   52  O  3  Y    0.000062  -0.000047  -0.000045   0.000032   0.000057
   53  O  3  Z    0.000017   0.000000  -0.000185   0.000168   0.000205
   54  O  3  S   -0.000376   0.000000   0.003905  -0.003702  -0.003602
   55  O  3  X    0.000275   0.000213  -0.000058  -0.000046   0.000041
   56  O  3  Y   -0.000275   0.000213   0.000058   0.000046  -0.000041
   57  O  3  Z   -0.000003   0.000000   0.000660  -0.000595  -0.000948
   58  O  3 XX   -0.000029  -0.000025  -0.000004   0.000013   0.000107
   59  O  3 YY   -0.000029   0.000025  -0.000004   0.000013   0.000107
   60  O  3 ZZ    0.000058   0.000000   0.000009  -0.000025  -0.000214
   61  O  3 XY    0.000011   0.000000  -0.000012  -0.000019  -0.000011
   62  O  3 XZ    0.000053   0.000043  -0.000004  -0.000003   0.000002
   63  O  3 YZ   -0.000053   0.000043   0.000004   0.000003  -0.000002
   64  O  4  S    0.000210   0.000000   0.498333  -0.497985   0.497617
   65  O  4  S    0.000177   0.000000   0.010886  -0.010789   0.010776
   66  O  4  X   -0.000062  -0.000047  -0.000045   0.000032  -0.000057
   67  O  4  Y    0.000062  -0.000047   0.000045  -0.000032   0.000057
   68  O  4  Z   -0.000017   0.000000  -0.000185   0.000168  -0.000204
   69  O  4  S   -0.000376   0.000000  -0.003906   0.003707  -0.003597
   70  O  4  X    0.000275   0.000213   0.000058   0.000045   0.000042
   71  O  4  Y   -0.000275   0.000213  -0.000058  -0.000045  -0.000042
   72  O  4  Z    0.000003   0.000000   0.000660  -0.000596   0.000947
   73  O  4 XX   -0.000029  -0.000025   0.000004  -0.000013   0.000107
   74  O  4 YY   -0.000029   0.000025   0.000004  -0.000013   0.000107
   75  O  4 ZZ    0.000058   0.000000  -0.000009   0.000026  -0.000214
   76  O  4 XY    0.000011   0.000000   0.000012   0.000020  -0.000011
   77  O  4 XZ   -0.000053  -0.000043  -0.000004  -0.000003  -0.000002
   78  O  4 YZ    0.000053  -0.000043   0.000004   0.000003   0.000002
   79  O  5  S    0.000002   0.000010   0.000000   0.000000  -0.000036
   80  O  5  S    0.000056   0.000031   0.000000   0.000000  -0.000115
   81  O  5  X    0.000035  -0.000030   0.000000   0.000000  -0.000005
   82  O  5  Y   -0.000053  -0.000053   0.000000   0.000000   0.000026
   83  O  5  Z    0.000000   0.000000   0.000102   0.000101   0.000000
   84  O  5  S   -0.000084  -0.000077   0.000000   0.000000   0.000235
   85  O  5  X   -0.000238   0.000338   0.000000   0.000000  -0.000044
   86  O  5  Y    0.000230   0.000221   0.000000   0.000000  -0.000094
   87  O  5  Z    0.000000   0.000000  -0.000432  -0.000429   0.000000
   88  O  5 XX   -0.000096   0.000175   0.000000   0.000000  -0.000047
   89  O  5 YY    0.000038  -0.000100   0.000000   0.000000   0.000009
   90  O  5 ZZ    0.000058  -0.000075   0.000000   0.000000   0.000038
   91  O  5 XY    0.000054   0.000045   0.000000   0.000000  -0.000007
   92  O  5 XZ    0.000000   0.000000  -0.000085  -0.000076   0.000000
   93  O  5 YZ    0.000000   0.000000  -0.000001   0.000002   0.000000
   94  O  6  S    0.000002   0.000010   0.000000   0.000000   0.000036
   95  O  6  S    0.000056   0.000031   0.000000   0.000000   0.000115
   96  O  6  X   -0.000053  -0.000053   0.000000   0.000000  -0.000026
   97  O  6  Y    0.000035  -0.000030   0.000000   0.000000   0.000005
   98  O  6  Z    0.000000   0.000000   0.000102  -0.000101   0.000000
   99  O  6  S   -0.000084  -0.000077   0.000000   0.000000  -0.000235
  100  O  6  X    0.000230   0.000221   0.000000   0.000000   0.000094
  101  O  6  Y   -0.000238   0.000338   0.000000   0.000000   0.000044
  102  O  6  Z    0.000000   0.000000  -0.000432   0.000428   0.000000
  103  O  6 XX    0.000038  -0.000100   0.000000   0.000000  -0.000009
  104  O  6 YY   -0.000096   0.000175   0.000000   0.000000   0.000047
  105  O  6 ZZ    0.000058  -0.000075   0.000000   0.000000  -0.000038
  106  O  6 XY    0.000054   0.000045   0.000000   0.000000   0.000007
  107  O  6 XZ    0.000000   0.000000  -0.000001  -0.000002   0.000000
  108  O  6 YZ    0.000000   0.000000  -0.000086   0.000076   0.000000
  109  O  7  S    0.704178  -0.704181   0.000000   0.000000   0.000000
  110  O  7  S    0.015668  -0.015643   0.000000   0.000000   0.000000
  111  O  7  X   -0.000163   0.000087   0.000000   0.000000   0.000054
  112  O  7  Y   -0.000163   0.000087   0.000000   0.000000  -0.000054
  113  O  7  Z    0.000000   0.000000   0.000170   0.000000   0.000000
  114  O  7  S   -0.006132   0.006168   0.000000   0.000000   0.000000
  115  O  7  X    0.000918  -0.000732   0.000000   0.000000  -0.000153
  116  O  7  Y    0.000918  -0.000732   0.000000   0.000000   0.000153
  117  O  7  Z    0.000000   0.000000  -0.000767   0.000000   0.000000
  118  O  7 XX   -0.000063   0.000085   0.000000   0.000000  -0.000036
  119  O  7 YY   -0.000063   0.000085   0.000000   0.000000   0.000036
  120  O  7 ZZ    0.000126  -0.000171   0.000000   0.000000   0.000000
  121  O  7 XY   -0.000050  -0.000088   0.000000   0.000000   0.000000
  122  O  7 XZ    0.000000   0.000000   0.000068   0.000095   0.000000
  123  O  7 YZ    0.000000   0.000000   0.000068  -0.000095   0.000000
  124  O  8  S    0.704178   0.704181   0.000000   0.000000   0.000000
  125  O  8  S    0.015668   0.015643   0.000000   0.000000   0.000000
  126  O  8  X    0.000163   0.000087   0.000000   0.000000   0.000054
  127  O  8  Y    0.000163   0.000087   0.000000   0.000000  -0.000054
  128  O  8  Z    0.000000   0.000000   0.000170   0.000000   0.000000
  129  O  8  S   -0.006132  -0.006168   0.000000   0.000000   0.000000
  130  O  8  X   -0.000918  -0.000732   0.000000   0.000000  -0.000153
  131  O  8  Y   -0.000918  -0.000732   0.000000   0.000000   0.000153
  132  O  8  Z    0.000000   0.000000  -0.000767   0.000000   0.000000
  133  O  8 XX   -0.000063  -0.000085   0.000000   0.000000   0.000036
  134  O  8 YY   -0.000063  -0.000085   0.000000   0.000000  -0.000036
  135  O  8 ZZ    0.000126   0.000171   0.000000   0.000000   0.000000
  136  O  8 XY   -0.000050   0.000088   0.000000   0.000000   0.000000
  137  O  8 XZ    0.000000   0.000000  -0.000068   0.000095   0.000000
  138  O  8 YZ    0.000000   0.000000  -0.000068  -0.000095   0.000000
  139  O  9  S    0.000002  -0.000010   0.000000   0.000000  -0.000036
  140  O  9  S    0.000056  -0.000031   0.000000   0.000000  -0.000115
  141  O  9  X    0.000053  -0.000053   0.000000   0.000000  -0.000026
  142  O  9  Y   -0.000035  -0.000030   0.000000   0.000000   0.000005
  143  O  9  Z    0.000000   0.000000   0.000102   0.000101   0.000000
  144  O  9  S   -0.000084   0.000077   0.000000   0.000000   0.000235
  145  O  9  X   -0.000230   0.000221   0.000000   0.000000   0.000094
  146  O  9  Y    0.000238   0.000338   0.000000   0.000000   0.000044
  147  O  9  Z    0.000000   0.000000  -0.000432  -0.000429   0.000000
  148  O  9 XX    0.000038   0.000100   0.000000   0.000000   0.000009
  149  O  9 YY   -0.000096  -0.000175   0.000000   0.000000  -0.000047
  150  O  9 ZZ    0.000058   0.000075   0.000000   0.000000   0.000038
  151  O  9 XY    0.000054  -0.000045   0.000000   0.000000  -0.000007
  152  O  9 XZ    0.000000   0.000000   0.000001  -0.000002   0.000000
  153  O  9 YZ    0.000000   0.000000   0.000085   0.000076   0.000000
  154  O 10  S    0.000002  -0.000010   0.000000   0.000000   0.000036
  155  O 10  S    0.000056  -0.000031   0.000000   0.000000   0.000115
  156  O 10  X   -0.000035  -0.000030   0.000000   0.000000  -0.000005
  157  O 10  Y    0.000053  -0.000053   0.000000   0.000000   0.000026
  158  O 10  Z    0.000000   0.000000   0.000102  -0.000101   0.000000
  159  O 10  S   -0.000084   0.000077   0.000000   0.000000  -0.000235
  160  O 10  X    0.000238   0.000338   0.000000   0.000000  -0.000044
  161  O 10  Y   -0.000230   0.000221   0.000000   0.000000  -0.000094
  162  O 10  Z    0.000000   0.000000  -0.000432   0.000428   0.000000
  163  O 10 XX   -0.000096  -0.000175   0.000000   0.000000   0.000047
  164  O 10 YY    0.000038   0.000100   0.000000   0.000000  -0.000009
  165  O 10 ZZ    0.000058   0.000075   0.000000   0.000000  -0.000038
  166  O 10 XY    0.000054  -0.000045   0.000000   0.000000   0.000007
  167  O 10 XZ    0.000000   0.000000   0.000086  -0.000076   0.000000
  168  O 10 YZ    0.000000   0.000000   0.000001   0.000002   0.000000
  169  O 11  S    0.000210   0.000000  -0.497516  -0.497855  -0.498230
  170  O 11  S    0.000177   0.000000  -0.010868  -0.010786  -0.010789
  171  O 11  X    0.000062  -0.000047  -0.000045  -0.000032  -0.000057
  172  O 11  Y   -0.000062  -0.000047   0.000045   0.000032   0.000057
  173  O 11  Z    0.000017   0.000000  -0.000185  -0.000168  -0.000205
  174  O 11  S   -0.000376   0.000000   0.003900   0.003707   0.003601
  175  O 11  X   -0.000275   0.000213   0.000058  -0.000045   0.000041
  176  O 11  Y    0.000275   0.000213  -0.000058   0.000045  -0.000041
  177  O 11  Z   -0.000003   0.000000   0.000659   0.000595   0.000948
  178  O 11 XX   -0.000029   0.000025  -0.000004  -0.000013  -0.000107
  179  O 11 YY   -0.000029  -0.000025  -0.000004  -0.000013  -0.000107
  180  O 11 ZZ    0.000058   0.000000   0.000009   0.000025   0.000214
  181  O 11 XY    0.000011   0.000000  -0.000012   0.000019   0.000011
  182  O 11 XZ   -0.000053   0.000043   0.000004  -0.000003   0.000002
  183  O 11 YZ    0.000053   0.000043  -0.000004   0.000003  -0.000002
  184  O 12  S    0.000210   0.000000   0.497714   0.498604  -0.497480
  185  O 12  S    0.000177   0.000000   0.010873   0.010803  -0.010773
  186  O 12  X    0.000062  -0.000047   0.000045   0.000032  -0.000057
  187  O 12  Y   -0.000062  -0.000047  -0.000045  -0.000032   0.000057
[...]
   21 MG            0.000000    2.000000         0.000000    2.000000
   22 MG            0.000000    2.000000         0.000000    2.000000
   23 MG            0.000000    2.000000         0.000000    2.000000
   24 MG            0.000000    2.000000         0.000000    2.000000
   25 MG            0.000000    2.000000         0.000000    2.000000
   26 MG            0.000000    2.000000         0.000000    2.000000
   27 MG            0.000000    2.000000         0.000000    2.000000
   28 MG            0.000000    2.000000         0.000000    2.000000
   29 MG            0.000000    2.000000         0.000000    2.000000
   30 MG            0.000000    2.000000         0.000000    2.000000
   31 MG            0.000000    2.000000         0.000000    2.000000
   32 MG            0.000000    2.000000         0.000000    2.000000
   33 MG            0.000000    2.000000         0.000000    2.000000
   34 MG            0.000000    2.000000         0.000000    2.000000
   35 MG            0.000000    2.000000         0.000000    2.000000
   36 MG            0.000000    2.000000         0.000000    2.000000
   37 MG            0.000000    2.000000         0.000000    2.000000
   38 MG            0.000000    2.000000         0.000000    2.000000

          MULLIKEN SPHERICAL HARMONIC POPULATIONS
       ATOM           S       P       D      F      G      H      I    TOTAL
    1 FE            2.30    6.50    6.23   0.00   0.00   0.00   0.00   15.04
    2 FE            2.30    6.50    6.23   0.00   0.00   0.00   0.00   15.04
    3 O             3.97    5.86    0.00   0.00   0.00   0.00   0.00    9.84
    4 O             3.97    5.86    0.00   0.00   0.00   0.00   0.00    9.84
    5 O             3.97    5.79    0.00   0.00   0.00   0.00   0.00    9.76
    6 O             3.97    5.79    0.00   0.00   0.00   0.00   0.00    9.76
    7 O             3.96    5.80    0.00   0.00   0.00   0.00   0.00    9.76
    8 O             3.96    5.80    0.00   0.00   0.00   0.00   0.00    9.76
    9 O             3.97    5.79    0.00   0.00   0.00   0.00   0.00    9.76
   10 O             3.97    5.79    0.00   0.00   0.00   0.00   0.00    9.76
   11 O             3.97    5.86    0.00   0.00   0.00   0.00   0.00    9.84
   12 O             3.97    5.86    0.00   0.00   0.00   0.00   0.00    9.84
   13 MG            0.00    0.00    0.00   0.00   0.00   0.00   0.00    0.00
   14 MG            0.00    0.00    0.00   0.00   0.00   0.00   0.00    0.00
   15 MG            0.00    0.00    0.00   0.00   0.00   0.00   0.00    0.00
   16 MG            0.00    0.00    0.00   0.00   0.00   0.00   0.00    0.00
   17 MG            0.00    0.00    0.00   0.00   0.00   0.00   0.00    0.00
   18 MG            0.00    0.00    0.00   0.00   0.00   0.00   0.00    0.00
   19 MG            0.00    0.00    0.00   0.00   0.00   0.00   0.00    0.00
   20 MG            0.00    0.00    0.00   0.00   0.00   0.00   0.00    0.00
   21 MG            0.00    0.00    0.00   0.00   0.00   0.00   0.00    0.00
   22 MG            0.00    0.00    0.00   0.00   0.00   0.00   0.00    0.00
   23 MG            0.00    0.00    0.00   0.00   0.00   0.00   0.00    0.00
   24 MG            0.00    0.00    0.00   0.00   0.00   0.00   0.00    0.00
   25 MG            0.00    0.00    0.00   0.00   0.00   0.00   0.00    0.00
   26 MG            0.00    0.00    0.00   0.00   0.00   0.00   0.00    0.00
   27 MG            0.00    0.00    0.00   0.00   0.00   0.00   0.00    0.00
   28 MG            0.00    0.00    0.00   0.00   0.00   0.00   0.00    0.00
   29 MG            0.00    0.00    0.00   0.00   0.00   0.00   0.00    0.00
   30 MG            0.00    0.00    0.00   0.00   0.00   0.00   0.00    0.00
   31 MG            0.00    0.00    0.00   0.00   0.00   0.00   0.00    0.00
   32 MG            0.00    0.00    0.00   0.00   0.00   0.00   0.00    0.00
   33 MG            0.00    0.00    0.00   0.00   0.00   0.00   0.00    0.00
   34 MG            0.00    0.00    0.00   0.00   0.00   0.00   0.00    0.00
   35 MG            0.00    0.00    0.00   0.00   0.00   0.00   0.00    0.00
   36 MG            0.00    0.00    0.00   0.00   0.00   0.00   0.00    0.00
   37 MG            0.00    0.00    0.00   0.00   0.00   0.00   0.00    0.00
   38 MG            0.00    0.00    0.00   0.00   0.00   0.00   0.00    0.00

          -------------------------------
          BOND ORDER AND VALENCE ANALYSIS     BOND ORDER THRESHOLD=0.050
          -------------------------------

                   BOND                       BOND                       BOND
  ATOM PAIR DIST  ORDER      ATOM PAIR DIST  ORDER      ATOM PAIR DIST  ORDER
    1   5  2.167  0.426        1   7  2.167  0.204        1   8  2.167  0.204
    1   9  2.167  0.426        1  11  2.167  0.294        1  12  2.167  0.294
    2   3  2.167  0.294        2   4  2.167  0.294        2   6  2.167  0.426
    2   7  2.167  0.204        2   8  2.167  0.204        2  10  2.167  0.426

                       TOTAL       BONDED        FREE
      ATOM            VALENCE     VALENCE     VALENCE
    1 FE                5.669       1.827       3.842
    2 FE                5.669       1.827       3.842
    3 O                 0.307       0.306       0.001
    4 O                 0.307       0.306       0.001
    5 O                 0.439       0.438       0.001
    6 O                 0.439       0.438       0.001
    7 O                 0.427       0.426       0.001
    8 O                 0.427       0.426       0.001
    9 O                 0.439       0.438       0.001
   10 O                 0.439       0.438       0.001
   11 O                 0.307       0.306       0.001
   12 O                 0.307       0.306       0.001
   13 MG                0.000       0.000       0.000
   14 MG                0.000       0.000       0.000
   15 MG                0.000       0.000       0.000
   16 MG                0.000       0.000       0.000
   17 MG                0.000       0.000       0.000
   18 MG                0.000       0.000       0.000
   19 MG                0.000       0.000       0.000
   20 MG                0.000       0.000       0.000
   21 MG                0.000       0.000       0.000
   22 MG                0.000       0.000       0.000
   23 MG                0.000       0.000       0.000
   24 MG                0.000       0.000       0.000
   25 MG                0.000       0.000       0.000
   26 MG                0.000       0.000       0.000
   27 MG                0.000       0.000       0.000
   28 MG                0.000       0.000       0.000
   29 MG                0.000       0.000       0.000
   30 MG                0.000       0.000       0.000
   31 MG                0.000       0.000       0.000
   32 MG                0.000       0.000       0.000
   33 MG                0.000       0.000       0.000
   34 MG                0.000       0.000       0.000
   35 MG                0.000       0.000       0.000
   36 MG                0.000       0.000       0.000
   37 MG                0.000       0.000       0.000
   38 MG                0.000       0.000       0.000

          -----------------------------------------
          ATOMIC SPIN DENSITY AT THE NUCLEUS (A.U.)
          -----------------------------------------
                            SPIN DENS    ALPHA DENS     BETA DENS
    1  FE          16.0     0.0000254       0.00009       0.00006
    2  FE          16.0     0.0000254       0.00009       0.00006
    3  O            8.0     0.0466425     145.46318     145.41654
    4  O            8.0     0.0466425     145.46318     145.41654
    5  O            8.0     0.0426198     145.47696     145.43434
    6  O            8.0     0.0426198     145.47696     145.43434
    7  O            8.0     0.0921192     145.49763     145.40551
    8  O            8.0     0.0921192     145.49763     145.40551
    9  O            8.0     0.0426198     145.47696     145.43434
   10  O            8.0     0.0426198     145.47696     145.43434
   11  O            8.0     0.0466425     145.46318     145.41654
   12  O            8.0     0.0466425     145.46318     145.41654
   13  MG           2.0     0.0000020       0.00006       0.00006
   14  MG           2.0     0.0000033       0.00018       0.00018
   15  MG           2.0     0.0000015       0.00006       0.00006
   16  MG           2.0     0.0000015       0.00006       0.00006
   17  MG           2.0     0.0000020       0.00006       0.00006
   18  MG           2.0    -0.0000002       0.00016       0.00016
   19  MG           2.0     0.0000033       0.00018       0.00018
   20  MG           2.0    -0.0000006       0.00022       0.00023
   21  MG           2.0    -0.0000006       0.00022       0.00023
   22  MG           2.0     0.0000000       0.00015       0.00015
   23  MG           2.0     0.0000000       0.00015       0.00015
   24  MG           2.0     0.0000000       0.00015       0.00015
   25  MG           2.0     0.0000000       0.00015       0.00015
   26  MG           2.0     0.0000000       0.00015       0.00015
   27  MG           2.0     0.0000000       0.00015       0.00015
   28  MG           2.0     0.0000000       0.00015       0.00015
   29  MG           2.0     0.0000000       0.00015       0.00015
   30  MG           2.0    -0.0000006       0.00022       0.00023
   31  MG           2.0    -0.0000006       0.00022       0.00023
   32  MG           2.0     0.0000033       0.00018       0.00018
   33  MG           2.0    -0.0000002       0.00016       0.00016
   34  MG           2.0     0.0000020       0.00006       0.00006
   35  MG           2.0     0.0000015       0.00006       0.00006
   36  MG           2.0     0.0000015       0.00006       0.00006
   37  MG           2.0     0.0000033       0.00018       0.00018
   38  MG           2.0     0.0000020       0.00006       0.00006

          ---------------------
          ELECTROSTATIC MOMENTS
          ---------------------

 POINT   1           X           Y           Z (BOHR)    CHARGE
                34.807808   30.712772   32.760290       36.00 (A.U.)
         DX          DY          DZ         /D/  (DEBYE)
     0.000000    0.000000    0.000000    0.000000
 ...... END OF PROPERTY EVALUATION ......
 ON NODE 0, STEP CPU TIME =    18.10 TOTAL CPU TIME =       18.8 (    0.3 MIN)
 TOTAL WALL CLOCK TIME=        0.0 SECONDS, CPU UTILIZATION IS 100.00%
         
 ---------------------------------------
 END OF PRELIMINARY POPULATION STUFF
 Found OrbsAA
 populations of d orbitals
 orb        alpha        beta
  D1       1.0016       0.0574
  D2       1.0056       0.0584
  D3       1.0115       1.0103
  D4       1.0131       0.0310
  D5       1.0131       0.0310
  D6       0.0000       0.0000
     
 d-d interactions:
  A-A:      10.1806
  B-B:       0.1911
  A-B:       5.9936
   
 denominators:
  U:      16.3653
  J:      10.3717
         
 ---------------------------------------
 START OF ALPHA COULOMB AND EXCHANGE
 END OF ALPHA COULOMB AND EXCHANGE
 ---------------------------------------
         
 ---------------------------------------
 START OF BETA COULOMB AND EXCHANGE
 END OF BETA COULOMB AND EXCHANGE
 ---------------------------------------
         
 ---------------------------------------
 START OF SELF-INTERACTION
 !!!!!!!!!!!!!!!!!!!!!!!!!!!!!!!!!!!!!!!!!!!!!!
 !!!!!!!!!!!!!!!!!!!!!!!!!!!!!!!!!!!!!!!!!!!!!!
 !!                                          !!
    Screening out all orbitals
    with populations of less than:
        0.000000000000000E+000
    from the self-interaction energy 
    calculation.
    
    alpha orbital populations: 
                     1  1.994034694941564E-005
                     2  6.942377397248594E-005
                     3 -5.034111614764916E-009
                     4 -6.787771295039359E-009
                     5  4.535797630166666E-005
                     6  4.604288410841191E-005
                     7  1.146494217721221E-005
                     8  1.175118070160715E-005
                     9  2.747323481020958E-005
                    10  4.510738534343238E-005
                    11  1.212314789088622E-004
                    12  9.128301949648268E-005
                    13  4.432660004699327E-006
                    14  1.837870942484406E-006
                    15  3.231191995290015E-005
                    16  2.937454441527111E-005
                    17  8.714375745059346E-006
                    18  4.690596847535336E-007
                    19  1.226754612416971E-004
                    20  4.946690312862621E-003
                    21  2.576564020233730E-006
                    22  5.566703692661332E-003
                    23  3.741790782888514E-003
                    24  3.298156691587552E-006
                    25  1.465096557875465E-003
                    26  1.289638606211022E-003
                    27  3.165899214673516E-003
                    28  3.891855915663414E-003
                    29  0.417639627180555     
                    30  0.424541880565804     
                    31  0.400710272587945     
                    32  0.410749656056068     
                    33  0.389918790336403     
                    34  0.459729799577709     
                    35  0.391485858133908     
                    36  0.470131267919127     
                    37  0.231200535145045     
                    38  0.219168626961595     
                    39  4.021874344110608E-002
                    40  0.205035912131058     
                    41  3.779160786901355E-002
                    42  2.664548609298370E-002
                    43  0.202732687329997     
                    44  8.248063413406002E-002
                    45  5.896056086399730E-002
                    46  2.559515460364537E-003
                    47  6.467755942867146E-003
                    48  4.103294370366292E-002
                    49  8.923745387047469E-003
                    50  3.133425220318618E-002
                    51  2.045413963372748E-002
                    52  8.093467072402250E-004
                    53  2.408165821999986E-002
                    54  5.036880655029356E-002
                    55  2.911910655492124E-002
                    56  6.267622821347534E-002
                    57  5.116145756790967E-002
                    58  3.112702748332383E-002
                    59  7.098355844906532E-003
                    60  3.649361417359338E-003
                    61  5.803706085543879E-003
                    62  5.386394402515735E-003
                    63  3.108914567715154E-003
                    64  1.655290036273474E-003
                    65  3.855659287080325E-002
                    66  2.954768822575966E-002
                    67  4.703387196173490E-002
                    68  4.909363174988762E-002
  
    keeping                    66 of                    68
    alpha orbitals for self-interaction
  
    beta orbital populations:
                     1  1.990250067653829E-005
                     2  6.939480139506074E-005
                     3 -5.018301134606103E-009
                     4 -6.765174806716956E-009
                     5  4.559777305144119E-005
                     6  4.624784224088002E-005
                     7  1.153438017719128E-005
                     8  1.180960567236513E-005
                     9  2.778096646061050E-005
                    10  4.546505135174305E-005
                    11  8.637566542680884E-006
                    12 -9.916647077609120E-006
                    13  7.214040258303555E-006
                    14  3.252379832716203E-006
                    15  3.540439695120199E-005
                    16  1.091760178924280E-005
                    17  6.334064903411041E-006
                    18  1.959520207773774E-006
                    19  1.666091554689612E-005
                    20  2.867695523251925E-003
                    21 -2.150421378541691E-006
                    22  3.063320814470791E-003
                    23  1.931351418333955E-003
                    24  3.286484073353569E-006
                    25  5.981325049422278E-004
                    26  6.389123427096196E-004
                    27  1.350271361789193E-003
                    28  1.951946449177872E-003
                    29  2.789315903258698E-002
                    30  1.153369882597536E-002
                    31  3.674145184768825E-002
                    32  1.449511997046391E-002
                    33  3.169922077754973E-003
                    34  1.753295776957237E-003
                    35  3.154052952897016E-003
                    36  9.261421495783122E-004
                    37  1.089679108112568E-002
                    38  3.295348746020694E-002
                    39  3.953138539381488E-003
                    40  4.612929466273824E-002
                    41  8.771589797485178E-003
                    42  6.410029365803892E-004
                    43  2.451314383233097E-003
                    44  4.845257125480390E-003
                    45  1.301447105951299E-002
                    46 -8.714872889596126E-006
                    47  0.104687332513184     
                    48  5.250964691954213E-002
                    49  3.997459348942588E-003
                    50  3.838237202613825E-002
                    51  1.480244637500448E-003
                    52  1.961239069245964E-003
                    53  3.223885278838504E-003
                    54  3.266297141259586E-003
                    55  5.580488875468893E-003
                    56  1.219396906860223E-002
                    57  1.573751316800567E-002
                    58  1.393452740067916E-002
                    59  0.311523478502623     
                    60  0.383486187488057     
    keeping                    55 of                    60
    beta orbitals for self-interaction 
 !!                                           !! 
 !!             Done screening                !!
 !!                                           !!
 !!!!!!!!!!!!!!!!!!!!!!!!!!!!!!!!!!!!!!!!!!!!!!
 !!!!!!!!!!!!!!!!!!!!!!!!!!!!!!!!!!!!!!!!!!!!!!
 END OF SELF-INTERACTION
 ---------------------------------------
                 
 ===============================================
 ===============================================
 !!                                           !!
 !!               SUMMARY OF INTEGRALS        !!
 !!                                           !!
 -----------------------------------------------
                                        
   U  [au]  [eV]:    0.3532       9.6061
   J  [au]  [eV]:    0.0342       0.9297
  U-J [au]  [eV]:    0.3190       8.6764
                                        
 Timing information for calculating U and J:
 ON NODE 0, STEP CPU TIME =     2.17 TOTAL CPU TIME =       20.9 (    0.3 MIN)
 TOTAL WALL CLOCK TIME=        0.0 SECONDS, CPU UTILIZATION IS 100.00%
 -----------------------------------------------
 ===============================================
 ===============================================
 ...... END OF UHF CALCULATION ......
 ON NODE 0, STEP CPU TIME =     0.00 TOTAL CPU TIME =       20.9 (    0.3 MIN)
 TOTAL WALL CLOCK TIME=        0.0 SECONDS, CPU UTILIZATION IS 100.00%
                611552  WORDS OF DYNAMIC MEMORY USED
 EXECUTION OF GAMESS TERMINATED NORMALLY Thu Aug 26 20:48:12 2010
 DDI: 1128 bytes (0.0 MB / 0 MWords) used by master data server.

 ----------------------------------------
 CPU timing information for all processes
 ========================================
 0: 20.528879 + 0.414936 = 20.943815
 1: 20.252921 + 0.183972 = 20.436893
 2: 20.200928 + 0.273958 = 20.474886
 3: 20.019956 + 0.193970 = 20.213926
 4: 20.195929 + 0.245962 = 20.441891
 5: 19.981962 + 0.134979 = 20.116941
 6: 20.074948 + 0.183972 = 20.258920
 7: 19.955966 + 0.165974 = 20.121940
 ----------------------------------------
 ddikick.x: exited gracefully.
----- accounting info -----
Thu Aug 26 20:48:15 EDT 2010
0.134u 0.078s 0:27.79 0.7%	0+0k 0+0io 2pf+0w
