----- GAMESS execution script -----
This job is running on host r2c4n6
under operating system Linux at Thu Aug 26 20:53:49 EDT 2010
making user scratch directory on r2c4n6
making job scratch directory on r2c4n6
Available scratch disk space (Kbyte units) at beginning of the job is
Filesystem           1K-blocks      Used Available Use% Mounted on
172.23.10.3:/scratch/network
                     1228072952 463332704 702368320  40% /scratch/network

 Distributed Data Interface kickoff program.
 Initiating 8 compute processes on 1 nodes to run the following command:

          ******************************************************
          *         GAMESS VERSION = 22 FEB 2006 (R5)          *
          *             FROM IOWA STATE UNIVERSITY             *
          * M.W.SCHMIDT, K.K.BALDRIDGE, J.A.BOATZ, S.T.ELBERT, *
          *   M.S.GORDON, J.H.JENSEN, S.KOSEKI, N.MATSUNAGA,   *
          *          K.A.NGUYEN, S.J.SU, T.L.WINDUS,           *
          *       TOGETHER WITH M.DUPUIS, J.A.MONTGOMERY       *
          *         J.COMPUT.CHEM.  14, 1347-1363(1993)        *
          **************** LINUX-ITANIUM VERSION ***************

     SINCE 1993, STUDENTS AND POSTDOCS WORKING AT IOWA STATE UNIVERSITY
     AND ALSO IN THEIR VARIOUS JOBS AFTER LEAVING ISU HAVE MADE IMPORTANT
     CONTRIBUTIONS TO THE CODE:
     IVANA ADAMOVIC, CHRISTINE AIKENS, YURI ALEXEEV, POOJA ARORA, ROB BELL,
     PRADIPTA BANDYOPADHYAY, BRETT BODE, GALINA CHABAN, WEI CHEN,
     CHEOL HO CHOI, PAUL DAY, TIM DUDLEY, DMITRI FEDOROV, GRAHAM FLETCHER,
     MARK FREITAG, KURT GLAESEMANN, GRANT MERRILL, TAKESHI NAGATA,
     HEATHER NETZLOFF, BOSILJKA NJEGIC, RYAN OLSON, MIKE PAK, JIM SHOEMAKER,
     LYUDMILA SLIPCHENKO, JIE SONG, TETSUYA TAKETSUGU, SIMON WEBB.

     ADDITIONAL CODE HAS BEEN PROVIDED BY COLLABORATORS IN OTHER GROUPS:
     IOWA STATE UNIVERSITY: JOE IVANIC, KLAUS RUEDENBERG
     UNIVERSITY OF TOKYO: KIMIHIKO HIRAO, HARUYUKI NAKANO, TAKAHITO
          NAKAJIMA, TAKAO TSUNEDA, MUNEAKI KAMIYA, SUSUMU YANAGISAWA,
          KIYOSHI YAGI
     UNIVERSITY OF SOUTHERN DENMARK: FRANK JENSEN
     UNIVERSITY OF IOWA: VISVALDAS KAIRYS, HUI LI
     NATIONAL INST. OF STANDARDS AND TECHNOLOGY: WALT STEVENS, DAVID GARMER
     UNIVERSITY OF PISA: BENEDETTA MENNUCCI, JACOPO TOMASI
     UNIVERSITY OF MEMPHIS: HENRY KURTZ, PRAKASHAN KORAMBATH
     UNIVERSITY OF ALBERTA: MARIUSZ KLOBUKOWSKI
     UNIVERSITY OF NEW ENGLAND: MARK SPACKMAN
     MIE UNIVERSITY: HIROAKI UMEDA
     MICHIGAN STATE UNIVERSITY:
          KAROL KOWALSKI, MARTA WLOCH, PIOTR PIECUCH
     UNIVERSITY OF SILESIA: MONIKA MUSIAL, STANISLAW KUCHARSKI
     FACULTES UNIVERSITAIRES NOTRE-DAME DE LA PAIX:
          OLIVIER QUINET, BENOIT CHAMPAGNE
     UNIVERSITY OF CALIFORNIA - SANTA BARBARA: BERNARD KIRTMAN
     INSTITUTE FOR MOLECULAR SCIENCE: KAZUYA ISHIMURA AND SHIGERU NAGASE
     UNIVERSITY OF NOTRE DAME: DAN CHIPMAN
     KYUSHU UNIVERSITY:
          FENG LONG GU, JACEK KORCHOWIEC, MARCIN MAKOWSKI, AND YURIKO AOKI
     PENNSYLVANIA STATE UNIVERSITY:
          TZVETELIN IORDANOV, CHET SWALINA, SHARON HAMMES-SCHIFFER


 PARALLEL VERSION RUNNING ON     8 PROCESSORS IN     1 NODES.

 EXECUTION OF GAMESS BEGUN Thu Aug 26 20:53:50 2010

            ECHO OF THE FIRST FEW INPUT CARDS -
 INPUT CARD> $CONTRL SCFTYP=UHF MULT=5 COORD=UNIQUE ICHARG=26 MAXIT=100 $END                
 INPUT CARD> $CONTRL PP=READ ISPHER=+1 $END                                                 
 INPUT CARD> $SCF    DIRSCF=.TRUE. SHIFT=.TRUE. $END                                        
 INPUT CARD> $GUESS  GUESS=HUCKEL $END                                                      
 INPUT CARD> $DATA                                                                          
 INPUT CARD>  FeO 2+ 1 a 0 b 6 O                                                            
 INPUT CARD>  C1                                                                            
 INPUT CARD>Fe  26.0  17.336  17.336  17.336                                                
 INPUT CARD> S   3                                                                          
 INPUT CARD>  1        6.422000000        -0.3927882000                                     
 INPUT CARD>  2        1.826000000         0.7712643000                                     
 INPUT CARD>  3       0.7135000000         0.4920228000                                     
 INPUT CARD> S   4                                                                          
 INPUT CARD>  1        6.422000000         0.1786877000                                     
 INPUT CARD>  2        1.826000000        -0.4194032000                                     
 INPUT CARD>  3       0.7135000000        -0.4568185000                                     
 INPUT CARD>  4       0.1021000000          1.103504800                                     
 INPUT CARD> S   1                                                                          
 INPUT CARD>  1       0.3630000000E-01      1.000000000                                     
 INPUT CARD> P   3                                                                          
 INPUT CARD>  1        19.48000000        -0.4702820000E-01                                 
 INPUT CARD>  2        2.389000000         0.6248841000                                     
 INPUT CARD>  3       0.7795000000         0.4722542000                                     
 INPUT CARD> P   1                                                                          
 INPUT CARD>  1       0.7400000000E-01      1.000000000                                     
 INPUT CARD> P   1                                                                          
 INPUT CARD>  1       0.2200000000E-01      1.000000000                                     
 INPUT CARD> D   4                                                                          
 INPUT CARD>  1        37.08000000         0.3290000000E-01                                 
 INPUT CARD>  2        10.10000000         0.1787418000                                     
 INPUT CARD>  3        3.220000000         0.4487657000                                     
 INPUT CARD>  4       0.9628000000         0.5876361000                                     
 INPUT CARD> D   1                                                                          
 INPUT CARD>  1       0.2262000000          1.000000000                                     
 INPUT CARD>                                                                                
 INPUT CARD>O    8.0  15.169  17.336  17.336                                                
 INPUT CARD> S   6                                                                          
 INPUT CARD>  1        5484.671700         0.1831100000E-02                                 
 INPUT CARD>  2        825.2349500         0.1395010000E-01                                 
 INPUT CARD>  3        188.0469600         0.6844510000E-01                                 
 INPUT CARD>  4        52.96450000         0.2327143000                                     
 INPUT CARD>  5        16.89757000         0.4701930000                                     
 INPUT CARD>  6        5.799635300         0.3585209000                                     
 INPUT CARD> L   3                                                                          
 INPUT CARD>  1        15.53961600        -0.1107775000         0.7087430000E-01            
 INPUT CARD>  2        3.599933600        -0.1480263000         0.3397528000                
 INPUT CARD>  3        1.013761800          1.130767000         0.7271586000                
 INPUT CARD> L   1                                                                          
 INPUT CARD>  1       0.2700058000          1.000000000          1.000000000                
 INPUT CARD> D   1                                                                          

 ..... DONE SETTING UP THE RUN .....
    1000000 WORDS OF MEMORY AVAILABLE


     RUN TITLE
     ---------
   FeO 2+ 1 a 0 b 6 O                                                            

 THE POINT GROUP OF THE MOLECULE IS C1      
 THE ORDER OF THE PRINCIPAL AXIS IS     0

 ATOM      ATOMIC                      COORDINATES (BOHR)
           CHARGE         X                   Y                   Z
 FE         26.0    32.7602897231       32.7602897231       32.7602897231
 O           8.0    28.6652535078       32.7602897231       32.7602897231
 O           8.0    36.8553259385       32.7602897231       32.7602897231
 O           8.0    32.7602897231       28.6652535078       32.7602897231
 O           8.0    32.7602897231       36.8553259385       32.7602897231
 O           8.0    32.7602897231       32.7602897231       28.6652535078
 O           8.0    32.7602897231       32.7602897231       36.8553259385
 MG         12.0    24.5702172924       32.7602897231       32.7602897231
 MG         12.0    32.7602897231       24.5702172924       32.7602897231
 MG         12.0    32.7602897231       32.7602897231       24.5702172924
 MG         12.0    32.7602897231       32.7602897231       40.9503621539
 MG         12.0    32.7602897231       40.9503621539       32.7602897231
 MG         12.0    40.9503621539       32.7602897231       32.7602897231
 MG         12.0    32.7602897231       28.6652535078       28.6652535078
 MG         12.0    32.7602897231       28.6652535078       36.8553259385
 MG         12.0    32.7602897231       36.8553259385       28.6652535078
 MG         12.0    32.7602897231       36.8553259385       36.8553259385
 MG         12.0    28.6652535078       32.7602897231       28.6652535078
 MG         12.0    28.6652535078       32.7602897231       36.8553259385
 MG         12.0    36.8553259385       32.7602897231       28.6652535078
 MG         12.0    36.8553259385       32.7602897231       36.8553259385
 MG         12.0    28.6652535078       28.6652535078       32.7602897231
 MG         12.0    28.6652535078       36.8553259385       32.7602897231
 MG         12.0    36.8553259385       28.6652535078       32.7602897231
 MG         12.0    36.8553259385       36.8553259385       32.7602897231

          INTERNUCLEAR DISTANCES (ANGS.)
          ------------------------------

                    FE             O              O              O         

  1  FE              0.0000000      2.1670000 *    2.1670000 *    2.1670000 *  
  2  O               2.1670000 *    0.0000000      4.3340000      3.0646008    
  3  O               2.1670000 *    4.3340000      0.0000000      3.0646008    
  4  O               2.1670000 *    3.0646008      3.0646008      0.0000000    
  5  O               2.1670000 *    3.0646008      3.0646008      4.3340000    
  6  O               2.1670000 *    3.0646008      3.0646008      3.0646008    
  7  O               2.1670000 *    3.0646008      3.0646008      3.0646008    
  8  MG              4.3340000      2.1670000 *    6.5010000      4.8455593    
  9  MG              4.3340000      4.8455593      4.8455593      2.1670000 *  
 10  MG              4.3340000      4.8455593      4.8455593      4.8455593    
 11  MG              4.3340000      4.8455593      4.8455593      4.8455593    
 12  MG              4.3340000      4.8455593      4.8455593      6.5010000    
 13  MG              4.3340000      6.5010000      2.1670000 *    4.8455593    
 14  MG              3.0646008      3.7533541      3.7533541      2.1670000 *  
 15  MG              3.0646008      3.7533541      3.7533541      2.1670000 *  
 16  MG              3.0646008      3.7533541      3.7533541      4.8455593    
 17  MG              3.0646008      3.7533541      3.7533541      4.8455593    
 18  MG              3.0646008      2.1670000 *    4.8455593      3.7533541    
 19  MG              3.0646008      2.1670000 *    4.8455593      3.7533541    
 20  MG              3.0646008      4.8455593      2.1670000 *    3.7533541    
 21  MG              3.0646008      4.8455593      2.1670000 *    3.7533541    
 22  MG              3.0646008      2.1670000 *    4.8455593      2.1670000 *  
 23  MG              3.0646008      2.1670000 *    4.8455593      4.8455593    
 24  MG              3.0646008      4.8455593      2.1670000 *    2.1670000 *  
 25  MG              3.0646008      4.8455593      2.1670000 *    4.8455593    

                    O              O              O              MG        

  1  FE              2.1670000 *    2.1670000 *    2.1670000 *    4.3340000    
  2  O               3.0646008      3.0646008      3.0646008      2.1670000 *  
  3  O               3.0646008      3.0646008      3.0646008      6.5010000    
  4  O               4.3340000      3.0646008      3.0646008      4.8455593    
  5  O               0.0000000      3.0646008      3.0646008      4.8455593    
  6  O               3.0646008      0.0000000      4.3340000      4.8455593    
  7  O               3.0646008      4.3340000      0.0000000      4.8455593    
  8  MG              4.8455593      4.8455593      4.8455593      0.0000000    
  9  MG              6.5010000      4.8455593      4.8455593      6.1292016    
 10  MG              4.8455593      2.1670000 *    6.5010000      6.1292016    
 11  MG              4.8455593      6.5010000      2.1670000 *    6.1292016    
 12  MG              2.1670000 *    4.8455593      4.8455593      6.1292016    
 13  MG              4.8455593      4.8455593      4.8455593      8.6680000    
 14  MG              4.8455593      2.1670000 *    4.8455593      5.3080443    
 15  MG              4.8455593      4.8455593      2.1670000 *    5.3080443    
 16  MG              2.1670000 *    2.1670000 *    4.8455593      5.3080443    
 17  MG              2.1670000 *    4.8455593      2.1670000 *    5.3080443    
 18  MG              3.7533541      2.1670000 *    4.8455593      3.0646008    
 19  MG              3.7533541      4.8455593      2.1670000 *    3.0646008    
 20  MG              3.7533541      2.1670000 *    4.8455593      6.8526557    
 21  MG              3.7533541      4.8455593      2.1670000 *    6.8526557    
 22  MG              4.8455593      3.7533541      3.7533541      3.0646008    
 23  MG              2.1670000 *    3.7533541      3.7533541      3.0646008    
 24  MG              4.8455593      3.7533541      3.7533541      6.8526557    
 25  MG              2.1670000 *    3.7533541      3.7533541      6.8526557    

                    MG             MG             MG             MG        

  1  FE              4.3340000      4.3340000      4.3340000      4.3340000    
  2  O               4.8455593      4.8455593      4.8455593      4.8455593    
  3  O               4.8455593      4.8455593      4.8455593      4.8455593    
  4  O               2.1670000 *    4.8455593      4.8455593      6.5010000    
  5  O               6.5010000      4.8455593      4.8455593      2.1670000 *  
  6  O               4.8455593      2.1670000 *    6.5010000      4.8455593    
  7  O               4.8455593      6.5010000      2.1670000 *    4.8455593    
  8  MG              6.1292016      6.1292016      6.1292016      6.1292016    
  9  MG              0.0000000      6.1292016      6.1292016      8.6680000    
 10  MG              6.1292016      0.0000000      8.6680000      6.1292016    
 11  MG              6.1292016      8.6680000      0.0000000      6.1292016    
 12  MG              8.6680000      6.1292016      6.1292016      0.0000000    
 13  MG              6.1292016      6.1292016      6.1292016      6.1292016    
 14  MG              3.0646008      3.0646008      6.8526557      6.8526557    
 15  MG              3.0646008      6.8526557      3.0646008      6.8526557    
 16  MG              6.8526557      3.0646008      6.8526557      3.0646008    
 17  MG              6.8526557      6.8526557      3.0646008      3.0646008    
 18  MG              5.3080443      3.0646008      6.8526557      5.3080443    
 19  MG              5.3080443      6.8526557      3.0646008      5.3080443    
 20  MG              5.3080443      3.0646008      6.8526557      5.3080443    
 21  MG              5.3080443      6.8526557      3.0646008      5.3080443    
 22  MG              3.0646008      5.3080443      5.3080443      6.8526557    
 23  MG              6.8526557      5.3080443      5.3080443      3.0646008    
 24  MG              3.0646008      5.3080443      5.3080443      6.8526557    
 25  MG              6.8526557      5.3080443      5.3080443      3.0646008    

                    MG             MG             MG             MG        

  1  FE              4.3340000      3.0646008      3.0646008      3.0646008    
  2  O               6.5010000      3.7533541      3.7533541      3.7533541    
  3  O               2.1670000 *    3.7533541      3.7533541      3.7533541    
  4  O               4.8455593      2.1670000 *    2.1670000 *    4.8455593    
  5  O               4.8455593      4.8455593      4.8455593      2.1670000 *  
  6  O               4.8455593      2.1670000 *    4.8455593      2.1670000 *  
  7  O               4.8455593      4.8455593      2.1670000 *    4.8455593    
  8  MG              8.6680000      5.3080443      5.3080443      5.3080443    
  9  MG              6.1292016      3.0646008      3.0646008      6.8526557    
 10  MG              6.1292016      3.0646008      6.8526557      3.0646008    
 11  MG              6.1292016      6.8526557      3.0646008      6.8526557    
 12  MG              6.1292016      6.8526557      6.8526557      3.0646008    
 13  MG              0.0000000      5.3080443      5.3080443      5.3080443    
 14  MG              5.3080443      0.0000000      4.3340000      4.3340000    
 15  MG              5.3080443      4.3340000      0.0000000      6.1292016    
 16  MG              5.3080443      4.3340000      6.1292016      0.0000000    
 17  MG              5.3080443      6.1292016      4.3340000      4.3340000    
 18  MG              6.8526557      3.0646008      5.3080443      3.0646008    
 19  MG              6.8526557      5.3080443      3.0646008      5.3080443    
 20  MG              3.0646008      3.0646008      5.3080443      3.0646008    
 21  MG              3.0646008      5.3080443      3.0646008      5.3080443    
 22  MG              6.8526557      3.0646008      3.0646008      5.3080443    
 23  MG              6.8526557      5.3080443      5.3080443      3.0646008    
 24  MG              3.0646008      3.0646008      3.0646008      5.3080443    
 25  MG              3.0646008      5.3080443      5.3080443      3.0646008    

                    MG             MG             MG             MG        

  1  FE              3.0646008      3.0646008      3.0646008      3.0646008    
  2  O               3.7533541      2.1670000 *    2.1670000 *    4.8455593    
  3  O               3.7533541      4.8455593      4.8455593      2.1670000 *  
  4  O               4.8455593      3.7533541      3.7533541      3.7533541    
  5  O               2.1670000 *    3.7533541      3.7533541      3.7533541    
  6  O               4.8455593      2.1670000 *    4.8455593      2.1670000 *  
  7  O               2.1670000 *    4.8455593      2.1670000 *    4.8455593    
  8  MG              5.3080443      3.0646008      3.0646008      6.8526557    
  9  MG              6.8526557      5.3080443      5.3080443      5.3080443    
 10  MG              6.8526557      3.0646008      6.8526557      3.0646008    
 11  MG              3.0646008      6.8526557      3.0646008      6.8526557    
 12  MG              3.0646008      5.3080443      5.3080443      5.3080443    
 13  MG              5.3080443      6.8526557      6.8526557      3.0646008    
 14  MG              6.1292016      3.0646008      5.3080443      3.0646008    
 15  MG              4.3340000      5.3080443      3.0646008      5.3080443    
 16  MG              4.3340000      3.0646008      5.3080443      3.0646008    
 17  MG              0.0000000      5.3080443      3.0646008      5.3080443    
 18  MG              5.3080443      0.0000000      4.3340000      4.3340000    
 19  MG              3.0646008      4.3340000      0.0000000      6.1292016    
 20  MG              5.3080443      4.3340000      6.1292016      0.0000000    
 21  MG              3.0646008      6.1292016      4.3340000      4.3340000    
 22  MG              5.3080443      3.0646008      3.0646008      5.3080443    
 23  MG              3.0646008      3.0646008      3.0646008      5.3080443    
 24  MG              5.3080443      5.3080443      5.3080443      3.0646008    
 25  MG              3.0646008      5.3080443      5.3080443      3.0646008    

                    MG             MG             MG             MG        

  1  FE              3.0646008      3.0646008      3.0646008      3.0646008    
  2  O               4.8455593      2.1670000 *    2.1670000 *    4.8455593    
  3  O               2.1670000 *    4.8455593      4.8455593      2.1670000 *  
  4  O               3.7533541      2.1670000 *    4.8455593      2.1670000 *  
  5  O               3.7533541      4.8455593      2.1670000 *    4.8455593    
  6  O               4.8455593      3.7533541      3.7533541      3.7533541    
  7  O               2.1670000 *    3.7533541      3.7533541      3.7533541    
  8  MG              6.8526557      3.0646008      3.0646008      6.8526557    
  9  MG              5.3080443      3.0646008      6.8526557      3.0646008    
 10  MG              6.8526557      5.3080443      5.3080443      5.3080443    
 11  MG              3.0646008      5.3080443      5.3080443      5.3080443    
 12  MG              5.3080443      6.8526557      3.0646008      6.8526557    
 13  MG              3.0646008      6.8526557      6.8526557      3.0646008    
 14  MG              5.3080443      3.0646008      5.3080443      3.0646008    
 15  MG              3.0646008      3.0646008      5.3080443      3.0646008    
 16  MG              5.3080443      5.3080443      3.0646008      5.3080443    
 17  MG              3.0646008      5.3080443      3.0646008      5.3080443    
 18  MG              6.1292016      3.0646008      3.0646008      5.3080443    
 19  MG              4.3340000      3.0646008      3.0646008      5.3080443    
 20  MG              4.3340000      5.3080443      5.3080443      3.0646008    
 21  MG              0.0000000      5.3080443      5.3080443      3.0646008    
 22  MG              5.3080443      0.0000000      4.3340000      4.3340000    
 23  MG              5.3080443      4.3340000      0.0000000      6.1292016    
 24  MG              3.0646008      4.3340000      6.1292016      0.0000000    
 25  MG              3.0646008      6.1292016      4.3340000      4.3340000    

                    MG        

  1  FE              3.0646008    
  2  O               4.8455593    
  3  O               2.1670000 *  
  4  O               4.8455593    
  5  O               2.1670000 *  
  6  O               3.7533541    
  7  O               3.7533541    
  8  MG              6.8526557    
  9  MG              6.8526557    
 10  MG              5.3080443    
 11  MG              5.3080443    
 12  MG              3.0646008    
 13  MG              3.0646008    
 14  MG              5.3080443    
 15  MG              5.3080443    
 16  MG              3.0646008    
 17  MG              3.0646008    
 18  MG              5.3080443    
 19  MG              5.3080443    
 20  MG              3.0646008    
 21  MG              3.0646008    
 22  MG              6.1292016    
 23  MG              4.3340000    
 24  MG              4.3340000    
 25  MG              0.0000000    

  * ... LESS THAN  3.000


     ATOMIC BASIS SET
     ----------------
 THE CONTRACTED PRIMITIVE FUNCTIONS HAVE BEEN UNNORMALIZED
 THE CONTRACTED BASIS FUNCTIONS ARE NOW NORMALIZED TO UNITY

  SHELL TYPE  PRIMITIVE        EXPONENT          CONTRACTION COEFFICIENT(S)

 FE        

      1   S       1             6.4220000   -0.392788225868
      1   S       2             1.8260000    0.771264350793
      1   S       3             0.7135000    0.492022832403

      2   S       4             6.4220000    0.178687707070
      2   S       5             1.8260000   -0.419403216594
      2   S       6             0.7135000   -0.456818518074
      2   S       7             0.1021000    1.103504843661

      3   S       8             0.0363000    1.000000000000

      4   P       9            19.4800000   -0.047028200021
      4   P      10             2.3890000    0.624884100275
      4   P      11             0.7795000    0.472254200208

      5   P      12             0.0740000    1.000000000000

      6   P      13             0.0220000    1.000000000000

      7   D      14            37.0800000    0.032900002682
      7   D      15            10.1000000    0.178741814570
      7   D      16             3.2200000    0.448765736581
      7   D      17             0.9628000    0.587636147901

      8   D      18             0.2262000    1.000000000000

 O         

      9   S      19          5484.6717000    0.001831099806
      9   S      20           825.2349500    0.013950098518
      9   S      21           188.0469600    0.068445092731
      9   S      22            52.9645000    0.232714275284
      9   S      23            16.8975700    0.470192950063
      9   S      24             5.7996353    0.358520861923

     10   L      25            15.5396160   -0.110777503825    0.070874299543
     10   L      26             3.5999336   -0.148026305111    0.339752797811
     10   L      27             1.0137618    1.130767039045    0.727158595314

     11   L      28             0.2700058    1.000000000000    1.000000000000

     12   D      29             0.8000000    1.000000000000

 O         

     13   S      30          5484.6717000    0.001831099806
     13   S      31           825.2349500    0.013950098518
     13   S      32           188.0469600    0.068445092731
     13   S      33            52.9645000    0.232714275284
     13   S      34            16.8975700    0.470192950063
     13   S      35             5.7996353    0.358520861923

     14   L      36            15.5396160   -0.110777503825    0.070874299543
     14   L      37             3.5999336   -0.148026305111    0.339752797811
     14   L      38             1.0137618    1.130767039045    0.727158595314

     15   L      39             0.2700058    1.000000000000    1.000000000000

     16   D      40             0.8000000    1.000000000000

 O         

     17   S      41          5484.6717000    0.001831099806
     17   S      42           825.2349500    0.013950098518
     17   S      43           188.0469600    0.068445092731
     17   S      44            52.9645000    0.232714275284
     17   S      45            16.8975700    0.470192950063
     17   S      46             5.7996353    0.358520861923

     18   L      47            15.5396160   -0.110777503825    0.070874299543
     18   L      48             3.5999336   -0.148026305111    0.339752797811
     18   L      49             1.0137618    1.130767039045    0.727158595314

     19   L      50             0.2700058    1.000000000000    1.000000000000

     20   D      51             0.8000000    1.000000000000

 O         

     21   S      52          5484.6717000    0.001831099806
     21   S      53           825.2349500    0.013950098518
     21   S      54           188.0469600    0.068445092731
     21   S      55            52.9645000    0.232714275284
     21   S      56            16.8975700    0.470192950063
     21   S      57             5.7996353    0.358520861923

     22   L      58            15.5396160   -0.110777503825    0.070874299543
     22   L      59             3.5999336   -0.148026305111    0.339752797811
     22   L      60             1.0137618    1.130767039045    0.727158595314

     23   L      61             0.2700058    1.000000000000    1.000000000000

     24   D      62             0.8000000    1.000000000000

 O         

     25   S      63          5484.6717000    0.001831099806
     25   S      64           825.2349500    0.013950098518
     25   S      65           188.0469600    0.068445092731
     25   S      66            52.9645000    0.232714275284
     25   S      67            16.8975700    0.470192950063
     25   S      68             5.7996353    0.358520861923

     26   L      69            15.5396160   -0.110777503825    0.070874299543
     26   L      70             3.5999336   -0.148026305111    0.339752797811
     26   L      71             1.0137618    1.130767039045    0.727158595314

     27   L      72             0.2700058    1.000000000000    1.000000000000

     28   D      73             0.8000000    1.000000000000

 O         

     29   S      74          5484.6717000    0.001831099806
     29   S      75           825.2349500    0.013950098518
     29   S      76           188.0469600    0.068445092731
     29   S      77            52.9645000    0.232714275284
     29   S      78            16.8975700    0.470192950063
     29   S      79             5.7996353    0.358520861923

     30   L      80            15.5396160   -0.110777503825    0.070874299543
     30   L      81             3.5999336   -0.148026305111    0.339752797811
     30   L      82             1.0137618    1.130767039045    0.727158595314

     31   L      83             0.2700058    1.000000000000    1.000000000000

     32   D      84             0.8000000    1.000000000000

 MG        

 MG        

 MG        

 MG        

 MG        

 MG        

 MG        

 MG        

 MG        

 MG        

 MG        

 MG        

 MG        

 MG        

 MG        

 MG        

 MG        

 MG        

 TOTAL NUMBER OF BASIS SET SHELLS             =   32
 NUMBER OF CARTESIAN GAUSSIAN BASIS FUNCTIONS =  114
 NOTE: THIS RUN WILL RESTRICT THE MO VARIATION SPACE TO SPHERICAL HARMONICS.
 THE NUMBER OF ORBITALS KEPT IN THE VARIATIONAL SPACE WILL BE PRINTED LATER.
 NUMBER OF ELECTRONS                          =  264
 CHARGE OF MOLECULE                           =   26
 SPIN MULTIPLICITY                            =    5
 NUMBER OF OCCUPIED ORBITALS (ALPHA)          =  134
 NUMBER OF OCCUPIED ORBITALS (BETA )          =  130
 TOTAL NUMBER OF ATOMS                        =   25
 THE NUCLEAR REPULSION ENERGY IS     5524.7542825057
 NOTE THIS RUN IS USING CORE POTENTIALS, AND THE NUMBER OF ELECTRONS,
 OCCUPIED ORBITALS, AND NUCLEAR REPULSION ENERGY WILL BE ADJUSTED BELOW
 AFTER REMOVAL OF THE CORE CHARGES.

     $CONTRL OPTIONS
     ---------------
 SCFTYP=UHF          RUNTYP=ENERGY       EXETYP=RUN     
 MPLEVL=       0     CITYP =NONE         CCTYP =NONE         VBTYP =NONE    
 MULT  =       5     ICHARG=      26     NZVAR =       0     COORD =UNIQUE  
 PP    =READ         RELWFN=NONE         LOCAL =NONE         NUMGRD=       F
 ISPHER=       1     NOSYM =       0     MAXIT =     100     UNITS =ANGS    
 PLTORB=       F     MOLPLT=       F     AIMPAC=       F     FRIEND=        
 NPRINT=       7     IREST =       0     GEOM  =INPUT   
 NORMF =       0     NORMP =       0     ITOL  =      20     ICUT  =       9
 INTTYP=BEST         GRDTYP=BEST         QMTTOL= 1.0E-06

     $SYSTEM OPTIONS
     ---------------
  REPLICATED MEMORY=     1000000 WORDS (ON EVERY NODE).
 DISTRIBUTED MEMDDI=           0 MILLION WORDS IN AGGREGATE,
 MEMDDI DISTRIBUTED OVER   8 PROCESSORS IS           0 WORDS/PROCESSOR.
 TOTAL MEMORY REQUESTED ON EACH PROCESSOR=     1000000 WORDS.
 TIMLIM=      525600.00 MINUTES, OR   365.00 DAYS.
 PARALL= T  BALTYP=  NXTVAL  KDIAG=    0  COREFL= F

          --------------
          ECP POTENTIALS
          --------------

 PARAMETERS FOR "FE-ECP  " ON ATOM    1 WITH ZCORE  10 AND LMAX  2 ARE
 FOR L= 2      COEFF    N           ZETA
    1      -10.00000    1      392.61498
    2      -63.26675    2       71.17570
    3      -10.96133    2       17.73203
 FOR L= 0      COEFF    N           ZETA
    1        3.00000    0      126.05719
    2       18.17291    1      138.12643
    3      339.12312    2       54.20989
    4      317.10680    2        9.28380
    5     -207.34216    2        8.62891
 FOR L= 1      COEFF    N           ZETA
    1        5.00000    0       83.17595
    2        5.95359    1      106.05599
    3      294.26655    2       42.82849
    4      154.42446    2        8.77018
    5      -95.31642    2        8.03978

 PARAMETERS FOR "MG-ECP  " ON ATOM    8 WITH ZCORE  10 AND LMAX  2 ARE
 FOR L= 2      COEFF    N           ZETA
    1      -10.00000    1      237.54848
    2      -55.89940    2       47.75204
    3      -20.13920    2       10.78379
    4       -7.06791    2        3.19921
    5       -0.81331    2        1.06370
 FOR L= 0      COEFF    N           ZETA
    1        3.00000    0      348.30086
    2       44.00757    1       59.46801
    3      107.38613    2       19.07676
    4       35.82891    2        5.29656
    5       10.11434    2        1.38674
 FOR L= 1      COEFF    N           ZETA
    1        5.00000    0     1256.87391
    2      117.10537    1      189.86088
    3      420.59721    2       54.69496
    4      107.61230    2       13.89901
    5       29.10026    2        3.95972
    6        7.08756    2        1.25528

 PARAMETERS FOR "MG-ECP  " ON ATOM    9 ARE THE SAME AS ATOM   8

 PARAMETERS FOR "MG-ECP  " ON ATOM   10 ARE THE SAME AS ATOM   8

 PARAMETERS FOR "MG-ECP  " ON ATOM   11 ARE THE SAME AS ATOM   8

 PARAMETERS FOR "MG-ECP  " ON ATOM   12 ARE THE SAME AS ATOM   8

 PARAMETERS FOR "MG-ECP  " ON ATOM   13 ARE THE SAME AS ATOM   8

 PARAMETERS FOR "MG-ECP  " ON ATOM   14 ARE THE SAME AS ATOM   8

 PARAMETERS FOR "MG-ECP  " ON ATOM   15 ARE THE SAME AS ATOM   8

 PARAMETERS FOR "MG-ECP  " ON ATOM   16 ARE THE SAME AS ATOM   8

 PARAMETERS FOR "MG-ECP  " ON ATOM   17 ARE THE SAME AS ATOM   8

 PARAMETERS FOR "MG-ECP  " ON ATOM   18 ARE THE SAME AS ATOM   8

 PARAMETERS FOR "MG-ECP  " ON ATOM   19 ARE THE SAME AS ATOM   8

 PARAMETERS FOR "MG-ECP  " ON ATOM   20 ARE THE SAME AS ATOM   8

 PARAMETERS FOR "MG-ECP  " ON ATOM   21 ARE THE SAME AS ATOM   8

 PARAMETERS FOR "MG-ECP  " ON ATOM   22 ARE THE SAME AS ATOM   8

 PARAMETERS FOR "MG-ECP  " ON ATOM   23 ARE THE SAME AS ATOM   8

 PARAMETERS FOR "MG-ECP  " ON ATOM   24 ARE THE SAME AS ATOM   8

 PARAMETERS FOR "MG-ECP  " ON ATOM   25 ARE THE SAME AS ATOM   8

 THE ECP RUN REMOVES  190 CORE ELECTRONS, AND THE SAME NUMBER OF PROTONS.
 NUMBER OF ELECTRONS KEPT IN THE CALCULATION IS =   74
 NUMBER OF OCCUPIED ORBITALS (ALPHA) KEPT IS    =   39
 NUMBER OF OCCUPIED ORBITALS (BETA ) KEPT IS    =   35
 THE ADJUSTED NUCLEAR REPULSION ENERGY=      768.9093024918
          ECP ANGULAR INTS.........     0.00 SECONDS

          ----------------
          PROPERTIES INPUT
          ----------------

     MOMENTS            FIELD           POTENTIAL          DENSITY
 IEMOM =       1   IEFLD =       0   IEPOT =       0   IEDEN =       0
 WHERE =COMASS     WHERE =NUCLEI     WHERE =NUCLEI     WHERE =NUCLEI  
 OUTPUT=BOTH       OUTPUT=BOTH       OUTPUT=BOTH       OUTPUT=BOTH    
 IEMINT=       0   IEFINT=       0                     IEDINT=       0
                                                       MORB  =       0
          EXTRAPOLATION IN EFFECT
          LEVEL SHIFTING IN EFFECT
          DIIS IN EFFECT
 ORBITAL PRINTING OPTION: NPREO=   1 114   2   1

     -------------------------------
     INTEGRAL TRANSFORMATION OPTIONS
     -------------------------------
     NWORD  =       0     CUTOFF = 1.0E-09
     MPTRAN =       0     DIRTRF =       T
     AOINTS =DUP     

          ----------------------
          INTEGRAL INPUT OPTIONS
          ----------------------
 NOPK  =       1 NORDER=       0 SCHWRZ=       T

     ------------------------------------------
     THE POINT GROUP IS C1 , NAXIS= 0, ORDER= 1
     ------------------------------------------

 -- VARIATIONAL SPACE WILL BE RESTRICTED TO PURE SPHERICAL HARMONICS ONLY --
 AFTER EXCLUDING CONTAMINANT COMBINATIONS FROM THE CARTESIAN GAUSSIAN BASIS
 SET, THE NUMBER OF SPHERICAL HARMONICS KEPT IN THE VARIATION SPACE IS  106

     DIMENSIONS OF THE SYMMETRY SUBSPACES ARE
 A   =  106

 ..... DONE SETTING UP THE RUN .....
 ON NODE 0, STEP CPU TIME =     0.03 TOTAL CPU TIME =        0.0 (    0.0 MIN)
 TOTAL WALL CLOCK TIME=        0.0 SECONDS, CPU UTILIZATION IS 100.00%

          ********************
          1 ELECTRON INTEGRALS
          ********************
 TIME TO DO ORDINARY INTEGRALS=      0.00
 TIME TO DO      ECP INTEGRALS=      0.07
 ...... END OF ONE-ELECTRON INTEGRALS ......
 ON NODE 0, STEP CPU TIME =     0.07 TOTAL CPU TIME =        0.1 (    0.0 MIN)
 TOTAL WALL CLOCK TIME=        0.0 SECONDS, CPU UTILIZATION IS 100.00%

          -------------
          GUESS OPTIONS
          -------------
          GUESS =HUCKEL            NORB  =       0          NORDER=       0
          MIX   =       F          PRTMO =       F          PUNMO =       F
          TOLZ  = 1.0E-08          TOLE  = 1.0E-05
          SYMDEN=       F          PURIFY=       F

 INITIAL GUESS ORBITALS GENERATED BY HUCKEL   ROUTINE.
 HUCKEL GUESS REQUIRES    125845 WORDS.

 STATISTICS FOR GENERATION OF SYMMETRY ORBITAL -Q- MATRIX
 NUMBER OF CARTESIAN ATOMIC ORBITALS=        114
 NUMBER OF SPHERICAL CONTAMINANTS DROPPED=     8
 NUMBER OF LINEARLY DEPENDENT MOS DROPPED=     0
 TOTAL NUMBER OF MOS IN VARIATION SPACE=     106

 SYMMETRIES FOR INITIAL GUESS ORBITALS FOLLOW.  ALPHA SET(S).
    39 ORBITALS ARE OCCUPIED (   10 CORE ORBITALS).
    11=A       12=A       13=A       14=A       15=A       16=A       17=A   
    18=A       19=A       20=A       21=A       22=A       23=A       24=A   
    25=A       26=A       27=A       28=A       29=A       30=A       31=A   
    32=A       33=A       34=A       35=A       36=A       37=A       38=A   
    39=A       40=A       41=A       42=A       43=A       44=A       45=A   
    46=A       47=A       48=A       49=A   

 SYMMETRIES FOR INITIAL GUESS ORBITALS FOLLOW.   BETA SET(S).
    35 ORBITALS ARE OCCUPIED (   10 CORE ORBITALS).
    11=A       12=A       13=A       14=A       15=A       16=A       17=A   
    18=A       19=A       20=A       21=A       22=A       23=A       24=A   
    25=A       26=A       27=A       28=A       29=A       30=A       31=A   
    32=A       33=A       34=A       35=A       36=A       37=A       38=A   
    39=A       40=A       41=A       42=A       43=A       44=A       45=A   
 ...... END OF INITIAL ORBITAL SELECTION ......
 ON NODE 0, STEP CPU TIME =     0.06 TOTAL CPU TIME =        0.2 (    0.0 MIN)
 TOTAL WALL CLOCK TIME=        0.0 SECONDS, CPU UTILIZATION IS 100.00%

                    ----------------------
                    AO INTEGRAL TECHNOLOGY
                    ----------------------
     S,P,L SHELL ROTATED AXIS INTEGRALS, REPROGRAMMED BY
        KAZUYA ISHIMURA (IMS) AND JOSE SIERRA (SYNSTAR).
     S,P,D,L SHELL ROTATED AXIS INTEGRALS PROGRAMMED BY
        KAZUYA ISHIMURA (INSTITUTE FOR MOLECULAR SCIENCE).
     S,P,D,F,G SHELL TO TOTAL QUARTET ANGULAR MOMENTUM SUM 5,
        ERIC PROGRAM BY GRAHAM FLETCHER (ELORET AND NASA ADVANCED
        SUPERCOMPUTING DIVISION, AMES RESEARCH CENTER).
     S,P,D,F,G,L SHELL GENERAL RYS QUADRATURE PROGRAMMED BY
        MICHEL DUPUIS (PACIFIC NORTHWEST NATIONAL LABORATORY).

          --------------------
          2 ELECTRON INTEGRALS
          --------------------

 DIRECT SCF METHOD SKIPS INTEGRAL STORAGE ON DISK.
 DIRECT TRANSFORMATION SKIPS AO INTEGRAL STORAGE ON DISK.
  ...... END OF TWO-ELECTRON INTEGRALS .....
 ON NODE 0, STEP CPU TIME =     0.01 TOTAL CPU TIME =        0.2 (    0.0 MIN)
 TOTAL WALL CLOCK TIME=        0.0 SECONDS, CPU UTILIZATION IS 100.00%

          ---------------------------
                  UHF SCF CALCULATION
          ---------------------------

     NUCLEAR ENERGY =       768.9093024918
     MAXIT =100     NPUNCH=  2     MULT=  5
     EXTRAP=T  DAMP=F  SHIFT=T  RSTRCT=F  DIIS=T  SOSCF=F
     DENSITY MATRIX CONV=  2.00E-05
     MEMORY REQUIRED FOR UHF/ROHF STEP=    183626 WORDS.

 DIRECT SCF CALCULATION, SCHWRZ=T   FDIFF=T
 SCHWARZ INEQUALITY OVERHEAD:      6480 INTEGRALS, T=        0.00

                                                                                                                NONZERO     BLOCKS
 ITER EX      TOTAL ENERGY        E CHANGE  DENSITY CHANGE    DIIS ERROR      VIR. SHIFT       DAMPING        INTEGRALS    SKIPPED
   1  0     -539.4343516179  -539.4343516179   5.299665841   0.856501091     0.000000000     1.000000000        8952873      43988
   2  1     -543.1247085223    -3.6903569044   0.190990052   0.536357699     2.000000000     1.000000000        8951203      44307
          * * *   INITIATING DIIS PROCEDURE   * * *
   3  2     -543.9086618224    -0.7839533001   0.413572234   0.320453177     0.000000000     1.000000000        8877461      48021
   4  3     -544.2335476432    -0.3248858208   0.269713551   0.277189926     0.000000000     1.000000000        8904181      46467
   5  4     -544.5427936733    -0.3092460301   0.065978692   0.040866135     0.000000000     1.000000000        8832971      48595
   6  5     -544.5602860772    -0.0174924039   0.008328696   0.013385518     0.000000000     1.000000000        8816777      49619
   7  6     -544.5614809628    -0.0011948857   0.005901994   0.005022155     0.000000000     1.000000000        8719114      52461
   8  7     -544.5618354799    -0.0003545171   0.004352785   0.002573407     0.000000000     1.000000000        8414962      55073
   9  8     -544.5619231479    -0.0000876680   0.001432467   0.000823807     0.000000000     1.000000000        8288356      56875
  10  9     -544.5619327220    -0.0000095741   0.000299362   0.000223401     0.000000000     1.000000000        7727712      60035
  11 10     -544.5619332273    -0.0000005053   0.000118904   0.000100670     0.000000000     1.000000000        7015750      66786
  12 11     -544.5619333090    -0.0000000817   0.000047295   0.000031028     0.000000000     1.000000000        6557696      71546
  13 12     -544.5619333194    -0.0000000104   0.000013286   0.000007395     0.000000000     1.000000000        6072650      74842
  14 13     -544.5619333212    -0.0000000018   0.000009065   0.000004674     0.000000000     1.000000000        5428538      80019

          -----------------
          DENSITY CONVERGED
          -----------------

 FINAL UHF ENERGY IS     -544.5619333212 AFTER  14 ITERATIONS

          --------------------
          SPIN SZ   =    2.000
          S-SQUARED =    6.007
          --------------------

  ----- ALPHA SET ----- 

          ------------
          EIGENVECTORS
          ------------

                      1          2          3          4          5
                  -23.8639   -23.8639   -23.8559   -23.8559   -23.8552
                     A          A          A          A          A   
    1  FE 1  S    0.000000   0.000619   0.000000   0.000618   0.000000
    2  FE 1  S    0.000000   0.001670   0.000000   0.001671   0.000000
    3  FE 1  S    0.000000   0.001023   0.000000   0.001029   0.000000
    4  FE 1  X    0.000000   0.000000   0.000070   0.000000   0.000000
    5  FE 1  Y    0.000070   0.000000   0.000000   0.000000   0.000000
    6  FE 1  Z    0.000000   0.000000   0.000000   0.000000   0.000070
    7  FE 1  X    0.000002   0.000000  -0.003730   0.000000   0.000000
    8  FE 1  Y   -0.003735   0.000000   0.000002   0.000000   0.000001
    9  FE 1  Z    0.000001   0.000000   0.000000   0.000000  -0.003729
   10  FE 1  X    0.000000   0.000000   0.000386   0.000000   0.000000
   11  FE 1  Y    0.000388   0.000000   0.000000   0.000000   0.000000
   12  FE 1  Z    0.000000   0.000000   0.000000   0.000000   0.000386
   13  FE 1 XX    0.000000   0.000105   0.000000  -0.000209   0.000000
   14  FE 1 YY    0.000000  -0.000210   0.000000   0.000105   0.000000
   15  FE 1 ZZ    0.000000   0.000105   0.000000   0.000103   0.000000
   16  FE 1 XY    0.000000   0.000000   0.000000   0.000000   0.000000
   17  FE 1 XZ    0.000000   0.000000   0.000000   0.000000   0.000000
   18  FE 1 YZ    0.000000   0.000000   0.000000   0.000000   0.000000
   19  FE 1 XX    0.000000  -0.001020   0.000000   0.002029   0.000000
   20  FE 1 YY    0.000000   0.002040   0.000000  -0.001024   0.000000
   21  FE 1 ZZ    0.000000  -0.001020   0.000000  -0.001004   0.000000
   22  FE 1 XY    0.000000  -0.000001   0.000000  -0.000001   0.000000
   23  FE 1 XZ    0.000000   0.000000   0.000000   0.000000   0.000000
   24  FE 1 YZ    0.000000  -0.000001   0.000000   0.000000   0.000000
   25  O  2  S    0.000002   0.000443   0.704169   0.704157  -0.000004
   26  O  2  S    0.000000   0.000174   0.015270   0.015176   0.000000
   27  O  2  X    0.000000   0.000006   0.000302   0.000362   0.000000
   28  O  2  Y   -0.000133   0.000000   0.000004   0.000004   0.000000
   29  O  2  Z    0.000000   0.000000   0.000001   0.000001  -0.000132
   30  O  2  S    0.000001  -0.000368  -0.005267  -0.004927   0.000000
   31  O  2  X    0.000000   0.000050  -0.000872  -0.001409   0.000000
   32  O  2  Y    0.000573   0.000000  -0.000002  -0.000001   0.000000
   33  O  2  Z    0.000000   0.000000   0.000000   0.000000   0.000573
   34  O  2 XX    0.000000   0.000064  -0.000019  -0.000313   0.000000
   35  O  2 YY    0.000000  -0.000050   0.000010   0.000157   0.000000
   36  O  2 ZZ    0.000000  -0.000013   0.000009   0.000156   0.000000
   37  O  2 XY    0.000109   0.000000  -0.000001  -0.000001   0.000000
   38  O  2 XZ    0.000000   0.000000   0.000000   0.000000   0.000109
   39  O  2 YZ    0.000000   0.000000   0.000000   0.000000   0.000000
   40  O  3  S   -0.000002   0.000443  -0.704169   0.704157   0.000004
   41  O  3  S    0.000000   0.000174  -0.015270   0.015176   0.000000
   42  O  3  X    0.000000  -0.000006   0.000302  -0.000362   0.000000
   43  O  3  Y   -0.000133   0.000000   0.000004  -0.000004   0.000000
   44  O  3  Z    0.000000   0.000000   0.000001  -0.000001  -0.000132
   45  O  3  S   -0.000001  -0.000368   0.005267  -0.004927   0.000000
   46  O  3  X    0.000000  -0.000050  -0.000872   0.001409   0.000000
   47  O  3  Y    0.000573   0.000000  -0.000002   0.000001   0.000000
   48  O  3  Z    0.000000   0.000000   0.000000   0.000000   0.000573
   49  O  3 XX    0.000000   0.000064   0.000019  -0.000313   0.000000
   50  O  3 YY    0.000000  -0.000050  -0.000010   0.000157   0.000000
   51  O  3 ZZ    0.000000  -0.000013  -0.000009   0.000156   0.000000
   52  O  3 XY   -0.000109   0.000000   0.000001  -0.000001   0.000000
   53  O  3 XZ    0.000000   0.000000   0.000000   0.000000  -0.000109
   54  O  3 YZ    0.000000   0.000000   0.000000   0.000000   0.000000
   55  O  4  S    0.704167   0.704169  -0.000002  -0.000436  -0.000001
   56  O  4  S    0.015281   0.015187   0.000000   0.000156   0.000000
   57  O  4  X    0.000004   0.000004  -0.000132   0.000000   0.000000
   58  O  4  Y    0.000310   0.000370   0.000000   0.000006   0.000000
   59  O  4  Z    0.000002   0.000002   0.000000   0.000000  -0.000132
   60  O  4  S   -0.005272  -0.004933   0.000001  -0.000365   0.000001
   61  O  4  X   -0.000002  -0.000001   0.000572   0.000000   0.000000
   62  O  4  Y   -0.000876  -0.001416   0.000000   0.000052   0.000000
   63  O  4  Z   -0.000001  -0.000001   0.000000   0.000000   0.000572
   64  O  4 XX    0.000010   0.000158   0.000000  -0.000050   0.000000
   65  O  4 YY   -0.000020  -0.000315   0.000000   0.000064   0.000000
   66  O  4 ZZ    0.000010   0.000158   0.000000  -0.000014   0.000000
   67  O  4 XY   -0.000001  -0.000001   0.000109   0.000000   0.000000
   68  O  4 XZ    0.000000   0.000000   0.000000   0.000000   0.000000
   69  O  4 YZ    0.000000   0.000000   0.000000   0.000000   0.000109
   70  O  5  S   -0.704167   0.704169   0.000002  -0.000436   0.000001
   71  O  5  S   -0.015281   0.015187   0.000000   0.000156   0.000000
   72  O  5  X    0.000004  -0.000004  -0.000132   0.000000   0.000000
   73  O  5  Y    0.000310  -0.000370   0.000000  -0.000006   0.000000
   74  O  5  Z    0.000002  -0.000002   0.000000   0.000000  -0.000132
   75  O  5  S    0.005272  -0.004933  -0.000001  -0.000365  -0.000001
   76  O  5  X   -0.000002   0.000001   0.000572   0.000000   0.000000
   77  O  5  Y   -0.000876   0.001416   0.000000  -0.000052   0.000000
   78  O  5  Z   -0.000001   0.000001   0.000000   0.000000   0.000572
   79  O  5 XX   -0.000010   0.000158   0.000000  -0.000050   0.000000
   80  O  5 YY    0.000020  -0.000315   0.000000   0.000064   0.000000
   81  O  5 ZZ   -0.000010   0.000158   0.000000  -0.000014   0.000000
   82  O  5 XY    0.000001  -0.000001  -0.000109   0.000000   0.000000
   83  O  5 XZ    0.000000   0.000000   0.000000   0.000000   0.000000
   84  O  5 YZ    0.000000   0.000000   0.000000   0.000000  -0.000109
   85  O  6  S    0.000001   0.000404   0.000004   0.004486   0.704169
   86  O  6  S    0.000000   0.000174   0.000000   0.000261   0.015269
   87  O  6  X    0.000000   0.000000  -0.000132   0.000000   0.000001
   88  O  6  Y   -0.000133   0.000000   0.000000   0.000000   0.000002
   89  O  6  Z    0.000000   0.000006   0.000000   0.000008   0.000302
   90  O  6  S    0.000001  -0.000368   0.000000  -0.000396  -0.005266
   91  O  6  X    0.000000   0.000000   0.000573   0.000000   0.000000
   92  O  6  Y    0.000573   0.000000   0.000000   0.000000  -0.000001
   93  O  6  Z    0.000000   0.000050   0.000000   0.000042  -0.000872
   94  O  6 XX    0.000000  -0.000013   0.000000  -0.000049   0.000009
   95  O  6 YY    0.000000  -0.000050   0.000000  -0.000013   0.000010
   96  O  6 ZZ    0.000000   0.000064   0.000000   0.000062  -0.000019
   97  O  6 XY    0.000000   0.000000   0.000000   0.000000   0.000000
   98  O  6 XZ    0.000000   0.000000   0.000109   0.000000   0.000000
   99  O  6 YZ    0.000109   0.000000   0.000000   0.000000   0.000000
  100  O  7  S   -0.000001   0.000404  -0.000004   0.004486  -0.704169
  101  O  7  S    0.000000   0.000174   0.000000   0.000261  -0.015269
  102  O  7  X    0.000000   0.000000  -0.000132   0.000000   0.000001
  103  O  7  Y   -0.000133   0.000000   0.000000   0.000000   0.000002
  104  O  7  Z    0.000000  -0.000006   0.000000  -0.000008   0.000302
  105  O  7  S   -0.000001  -0.000368   0.000000  -0.000396   0.005266
  106  O  7  X    0.000000   0.000000   0.000573   0.000000   0.000000
  107  O  7  Y    0.000573   0.000000   0.000000   0.000000  -0.000001
  108  O  7  Z    0.000000  -0.000050   0.000000  -0.000042  -0.000872
  109  O  7 XX    0.000000  -0.000013   0.000000  -0.000049  -0.000009
  110  O  7 YY    0.000000  -0.000050   0.000000  -0.000013  -0.000010
  111  O  7 ZZ    0.000000   0.000064   0.000000   0.000062   0.000019
  112  O  7 XY    0.000000   0.000000   0.000000   0.000000   0.000000
  113  O  7 XZ    0.000000   0.000000  -0.000109   0.000000   0.000000
  114  O  7 YZ   -0.000109   0.000000   0.000000   0.000000   0.000000

                      6          7          8          9         10
                  -23.8552    -7.7010    -6.3839    -6.3176    -6.3025
                     A          A          A          A          A   
    1  FE 1  S    0.000610   0.996938   0.000000   0.000000   0.000000
    2  FE 1  S    0.001650  -0.005978   0.000000   0.000000   0.000000
    3  FE 1  S    0.001016   0.000860   0.000000   0.000000   0.000000
    4  FE 1  X    0.000000   0.000000  -0.310526  -0.683727   0.658515
    5  FE 1  Y    0.000000   0.000000   0.940072  -0.122779   0.315376
    6  FE 1  Z    0.000000   0.000000  -0.135017   0.717634   0.681360
    7  FE 1  X    0.000000   0.000000   0.001022   0.001086  -0.000788
    8  FE 1  Y    0.000000   0.000000  -0.004274   0.000352  -0.000782
    9  FE 1  Z    0.000000   0.000000   0.000428  -0.001050  -0.000729
   10  FE 1  X    0.000000   0.000000  -0.000242  -0.000271   0.000202
   11  FE 1  Y    0.000000   0.000000   0.001081  -0.000095   0.000216
   12  FE 1  Z    0.000000   0.000000  -0.000100   0.000257   0.000184
   13  FE 1 XX    0.000106  -0.005198   0.000000   0.000000   0.000000
   14  FE 1 YY    0.000104   0.012104   0.000000   0.000000   0.000000
   15  FE 1 ZZ   -0.000210  -0.006905   0.000000   0.000000   0.000000
   16  FE 1 XY    0.000000  -0.007640   0.000000   0.000000   0.000000
   17  FE 1 XZ    0.000000  -0.001282   0.000000   0.000000   0.000000
   18  FE 1 YZ    0.000000  -0.003941   0.000000   0.000000   0.000000
   19  FE 1 XX   -0.001030   0.001334   0.000000   0.000000   0.000000
   20  FE 1 YY   -0.001011  -0.003105   0.000000   0.000000   0.000000
   21  FE 1 ZZ    0.002041   0.001771   0.000000   0.000000   0.000000
   22  FE 1 XY    0.000000   0.000868   0.000000   0.000000   0.000000
   23  FE 1 XZ    0.000000   0.000147   0.000000   0.000000   0.000000
   24  FE 1 YZ   -0.000001   0.000448   0.000000   0.000000   0.000000
   25  O  2  S   -0.004478  -0.000170  -0.000288  -0.000683   0.000670
   26  O  2  S    0.000068  -0.000667  -0.000151  -0.000393   0.000391
   27  O  2  X    0.000004   0.000030   0.000616   0.001243  -0.001173
   28  O  2  Y    0.000000  -0.000033  -0.000307   0.000026  -0.000081
   29  O  2  Z    0.000000  -0.000006   0.000038  -0.000189  -0.000171
   30  O  2  S   -0.000333   0.002104   0.002025   0.004559  -0.004416
   31  O  2  X    0.000060   0.001634   0.001092   0.003005  -0.003030
   32  O  2  Y    0.000000   0.000175   0.001895  -0.000193   0.000542
   33  O  2  Z    0.000000   0.000030  -0.000244   0.001214   0.001118
   34  O  2 XX    0.000066   0.000494   0.000610   0.001498  -0.001477
   35  O  2 YY   -0.000015  -0.000212  -0.000304  -0.000747   0.000737
   36  O  2 ZZ   -0.000051  -0.000282  -0.000306  -0.000751   0.000740
   37  O  2 XY    0.000000   0.000077   0.000816  -0.000099   0.000268
   38  O  2 XZ    0.000000   0.000013  -0.000112   0.000608   0.000576
   39  O  2 YZ    0.000000  -0.000008   0.000000  -0.000001   0.000001
   40  O  3  S   -0.004478  -0.000170   0.000288   0.000683  -0.000670
   41  O  3  S    0.000068  -0.000667   0.000151   0.000393  -0.000391
   42  O  3  X   -0.000004  -0.000030   0.000616   0.001243  -0.001173
   43  O  3  Y    0.000000   0.000033  -0.000307   0.000026  -0.000081
   44  O  3  Z    0.000000   0.000006   0.000038  -0.000189  -0.000171
   45  O  3  S   -0.000333   0.002104  -0.002025  -0.004559   0.004416
   46  O  3  X   -0.000060  -0.001634   0.001092   0.003005  -0.003030
   47  O  3  Y    0.000000  -0.000175   0.001895  -0.000193   0.000542
   48  O  3  Z    0.000000  -0.000030  -0.000244   0.001214   0.001118
   49  O  3 XX    0.000066   0.000494  -0.000610  -0.001498   0.001477
   50  O  3 YY   -0.000015  -0.000212   0.000304   0.000747  -0.000737
   51  O  3 ZZ   -0.000051  -0.000282   0.000306   0.000751  -0.000740
   52  O  3 XY    0.000000   0.000077  -0.000816   0.000099  -0.000268
   53  O  3 XZ    0.000000   0.000013   0.000112  -0.000608  -0.000576
   54  O  3 YZ    0.000000  -0.000008   0.000000   0.000001  -0.000001
   55  O  4  S   -0.000392  -0.000220   0.000908  -0.000128   0.000334
   56  O  4  S    0.000155  -0.001164   0.000771  -0.000112   0.000294
   57  O  4  X    0.000000  -0.000033   0.000110   0.000191  -0.000177
   58  O  4  Y    0.000006   0.000017  -0.001746   0.000208  -0.000522
   59  O  4  Z    0.000000  -0.000017   0.000049  -0.000201  -0.000183
   60  O  4  S   -0.000360   0.003909  -0.007030   0.000939  -0.002426
   61  O  4  X    0.000000   0.000176  -0.000650  -0.001226   0.001150
   62  O  4  Y    0.000051   0.002978  -0.003929   0.000623  -0.001667
   63  O  4  Z    0.000000   0.000091  -0.000285   0.001286   0.001188
   64  O  4 XX   -0.000013  -0.000448   0.000971  -0.000141   0.000370
   65  O  4 YY    0.000063   0.000901  -0.001942   0.000282  -0.000740
   66  O  4 ZZ   -0.000050  -0.000454   0.000972  -0.000140   0.000370
   67  O  4 XY    0.000000   0.000077  -0.000273  -0.000582   0.000560
   68  O  4 XZ    0.000000  -0.000003   0.000000   0.000000   0.000000
   69  O  4 YZ    0.000000   0.000040  -0.000119   0.000611   0.000579
   70  O  5  S   -0.000392  -0.000220  -0.000908   0.000128  -0.000334
   71  O  5  S    0.000155  -0.001164  -0.000771   0.000112  -0.000294
   72  O  5  X    0.000000   0.000033   0.000110   0.000191  -0.000177
   73  O  5  Y   -0.000006  -0.000017  -0.001746   0.000208  -0.000522
   74  O  5  Z    0.000000   0.000017   0.000049  -0.000201  -0.000183
   75  O  5  S   -0.000360   0.003909   0.007030  -0.000939   0.002426
   76  O  5  X    0.000000  -0.000176  -0.000650  -0.001226   0.001150
   77  O  5  Y   -0.000051  -0.002978  -0.003929   0.000623  -0.001667
   78  O  5  Z    0.000000  -0.000091  -0.000285   0.001286   0.001188
   79  O  5 XX   -0.000013  -0.000448  -0.000971   0.000141  -0.000370
   80  O  5 YY    0.000063   0.000901   0.001942  -0.000282   0.000740
   81  O  5 ZZ   -0.000050  -0.000454  -0.000972   0.000140  -0.000370
   82  O  5 XY    0.000000   0.000077   0.000273   0.000582  -0.000560
   83  O  5 XZ    0.000000  -0.000003   0.000000   0.000000   0.000000
   84  O  5 YZ    0.000000   0.000040   0.000119  -0.000611  -0.000579
   85  O  6  S    0.704157  -0.000165  -0.000125   0.000714   0.000690
   86  O  6  S    0.015173  -0.000618  -0.000061   0.000389   0.000382
   87  O  6  X    0.000001  -0.000006   0.000089   0.000181  -0.000166
   88  O  6  Y    0.000002  -0.000017  -0.000302   0.000042  -0.000085
   89  O  6  Z    0.000361   0.000031   0.000270  -0.001314  -0.001222
   90  O  6  S   -0.004922   0.001927   0.000868  -0.004715  -0.004503
   91  O  6  X    0.000000   0.000030  -0.000567  -0.001161   0.001084
   92  O  6  Y   -0.000001   0.000091   0.001874  -0.000246   0.000555
   93  O  6  Z   -0.001409   0.001502   0.000466  -0.003107  -0.003090
   94  O  6 XX    0.000156  -0.000259  -0.000133   0.000784   0.000762
   95  O  6 YY    0.000157  -0.000195  -0.000131   0.000781   0.000759
   96  O  6 ZZ   -0.000313   0.000454   0.000264  -0.001565  -0.001521
   97  O  6 XY    0.000000  -0.000015   0.000000   0.000002   0.000002
   98  O  6 XZ    0.000000   0.000013  -0.000260  -0.000581   0.000558
   99  O  6 YZ    0.000000   0.000040   0.000813  -0.000112   0.000272
  100  O  7  S    0.704157  -0.000165   0.000125  -0.000714  -0.000690
  101  O  7  S    0.015173  -0.000618   0.000061  -0.000389  -0.000382
  102  O  7  X   -0.000001   0.000006   0.000089   0.000181  -0.000166
  103  O  7  Y   -0.000002   0.000017  -0.000302   0.000042  -0.000085
  104  O  7  Z   -0.000361  -0.000031   0.000270  -0.001314  -0.001222
  105  O  7  S   -0.004922   0.001927  -0.000868   0.004715   0.004503
  106  O  7  X    0.000000  -0.000030  -0.000567  -0.001161   0.001084
  107  O  7  Y    0.000001  -0.000091   0.001874  -0.000246   0.000555
  108  O  7  Z    0.001409  -0.001502   0.000466  -0.003107  -0.003090
  109  O  7 XX    0.000156  -0.000259   0.000133  -0.000784  -0.000762
  110  O  7 YY    0.000157  -0.000195   0.000131  -0.000781  -0.000759
  111  O  7 ZZ   -0.000313   0.000454  -0.000264   0.001565   0.001521
  112  O  7 XY    0.000000  -0.000015   0.000000  -0.000002  -0.000002
  113  O  7 XZ    0.000000   0.000013   0.000260   0.000581  -0.000558
  114  O  7 YZ    0.000000   0.000040  -0.000813   0.000112  -0.000272

                     11         12         13         14         15
                   -4.5773    -4.5655    -4.5575    -4.5570    -4.5561
                     A          A          A          A          A   
    1  FE 1  S   -0.024780   0.000000   0.004667   0.000000   0.000000
    2  FE 1  S    0.054698   0.000000  -0.011776   0.000000   0.000000
    3  FE 1  S    0.005816   0.000000  -0.001987   0.000000   0.000000
    4  FE 1  X    0.000000   0.000235   0.000000   0.041410  -0.000903
    5  FE 1  Y    0.000000  -0.041040   0.000000   0.000664  -0.000341
    6  FE 1  Z    0.000000   0.000100   0.000000  -0.000818  -0.041448
    7  FE 1  X    0.000000  -0.001098   0.000000  -0.030564   0.000495
    8  FE 1  Y    0.000000   0.029881   0.000000   0.000431  -0.000251
    9  FE 1  Z    0.000000  -0.000552   0.000000   0.000777   0.030632
   10  FE 1  X    0.000000   0.000227   0.000000   0.003314  -0.000034
   11  FE 1  Y    0.000000  -0.003344   0.000000  -0.000153   0.000085
   12  FE 1  Z    0.000000   0.000116   0.000000  -0.000104  -0.003311
   13  FE 1 XX   -0.005660   0.000000  -0.033012   0.000000   0.000000
   14  FE 1 YY    0.012229   0.000000   0.059740   0.000000   0.000000
   15  FE 1 ZZ   -0.006570   0.000000  -0.026728   0.000000   0.000000
   16  FE 1 XY    0.000251   0.000000  -0.000686   0.000000   0.000000
   17  FE 1 XZ    0.000112   0.000000   0.000249   0.000000   0.000000
   18  FE 1 YZ    0.000139   0.000000  -0.000434   0.000000   0.000000
   19  FE 1 XX   -0.002063   0.000000  -0.006610   0.000000   0.000000
   20  FE 1 YY    0.004622   0.000000   0.011850   0.000000   0.000000
   21  FE 1 ZZ   -0.002559   0.000000  -0.005239   0.000000   0.000000
   22  FE 1 XY   -0.001095   0.000000   0.000051   0.000000   0.000000
   23  FE 1 XZ   -0.000166   0.000000   0.000116   0.000000   0.000000
   24  FE 1 YZ   -0.000563   0.000000   0.000003   0.000000   0.000000
   25  O  2  S   -0.074532  -0.001731   0.089749  -0.158554   0.003292
   26  O  2  S    0.148632   0.003511  -0.178876   0.317297  -0.006580
   27  O  2  X    0.006260   0.000081  -0.003066   0.004315  -0.000083
   28  O  2  Y    0.000111   0.003001  -0.000069   0.000114   0.000000
   29  O  2  Z    0.000018  -0.000028  -0.000020   0.000091   0.003039
   30  O  2  S    0.203860   0.004543  -0.250435   0.437927  -0.009137
   31  O  2  X    0.003515   0.000071  -0.001755   0.004273  -0.000084
   32  O  2  Y    0.000097   0.001904  -0.000206   0.000349   0.000034
   33  O  2  Z    0.000019   0.000023  -0.000034   0.000105   0.001835
   34  O  2 XX   -0.001303  -0.000020   0.001296  -0.002214   0.000047
   35  O  2 YY    0.000825   0.000015  -0.000317   0.001280  -0.000028
   36  O  2 ZZ    0.000478   0.000005  -0.000978   0.000934  -0.000019
   37  O  2 XY    0.000021   0.000566  -0.000067   0.000118   0.000004
   38  O  2 XZ    0.000005   0.000000  -0.000010   0.000034   0.000554
   39  O  2 YZ   -0.000031   0.000000   0.000039  -0.000070   0.000004
   40  O  3  S   -0.074532   0.001731   0.089749   0.158554  -0.003292
   41  O  3  S    0.148632  -0.003511  -0.178876  -0.317297   0.006580
   42  O  3  X   -0.006260   0.000081   0.003066   0.004315  -0.000083
   43  O  3  Y   -0.000111   0.003001   0.000069   0.000114   0.000000
   44  O  3  Z   -0.000018  -0.000028   0.000020   0.000091   0.003039
   45  O  3  S    0.203860  -0.004543  -0.250435  -0.437927   0.009137
   46  O  3  X   -0.003515   0.000071   0.001755   0.004273  -0.000084
   47  O  3  Y   -0.000097   0.001904   0.000206   0.000349   0.000034
   48  O  3  Z   -0.000019   0.000023   0.000034   0.000105   0.001835
   49  O  3 XX   -0.001303   0.000020   0.001296   0.002214  -0.000047
   50  O  3 YY    0.000825  -0.000015  -0.000317  -0.001280   0.000028
   51  O  3 ZZ    0.000478  -0.000005  -0.000978  -0.000934   0.000019
   52  O  3 XY    0.000021  -0.000566  -0.000067  -0.000118  -0.000004
   53  O  3 XZ    0.000005   0.000000  -0.000010  -0.000034  -0.000554
   54  O  3 YZ   -0.000031   0.000000   0.000039   0.000070  -0.000004
   55  O  4  S   -0.115967   0.158634  -0.107170  -0.001763   0.000877
   56  O  4  S    0.231709  -0.317621   0.213732   0.003483  -0.001730
   57  O  4  X    0.000145  -0.000183   0.000085  -0.003087   0.000059
   58  O  4  Y    0.007662  -0.004735   0.001634   0.000017  -0.000007
   59  O  4  Z    0.000075  -0.000094   0.000046   0.000070   0.003092
   60  O  4  S    0.318794  -0.438069   0.301457   0.005103  -0.002549
   61  O  4  X    0.000199  -0.000392   0.000274  -0.002033   0.000051
   62  O  4  Y    0.004272  -0.005824   0.001596   0.000037  -0.000017
   63  O  4  Z    0.000104  -0.000202   0.000142   0.000034   0.002031
   64  O  4 XX    0.000926  -0.000949   0.000563   0.000010  -0.000008
   65  O  4 YY   -0.001819   0.001867  -0.001169  -0.000025   0.000013
   66  O  4 ZZ    0.000893  -0.000918   0.000607   0.000016  -0.000005
   67  O  4 XY    0.000055  -0.000132   0.000089  -0.000578   0.000012
   68  O  4 XZ   -0.000017   0.000024  -0.000017  -0.000002   0.000003
   69  O  4 YZ    0.000029  -0.000068   0.000046   0.000012   0.000578
   70  O  5  S   -0.115967  -0.158634  -0.107170   0.001763  -0.000877
   71  O  5  S    0.231709   0.317621   0.213732  -0.003483   0.001730
   72  O  5  X   -0.000145  -0.000183  -0.000085  -0.003087   0.000059
   73  O  5  Y   -0.007662  -0.004735  -0.001634   0.000017  -0.000007
   74  O  5  Z   -0.000075  -0.000094  -0.000046   0.000070   0.003092
   75  O  5  S    0.318794   0.438069   0.301457  -0.005103   0.002549
   76  O  5  X   -0.000199  -0.000392  -0.000274  -0.002033   0.000051
   77  O  5  Y   -0.004272  -0.005824  -0.001596   0.000037  -0.000017
   78  O  5  Z   -0.000104  -0.000202  -0.000142   0.000034   0.002031
   79  O  5 XX    0.000926   0.000949   0.000563  -0.000010   0.000008
   80  O  5 YY   -0.001819  -0.001867  -0.001169   0.000025  -0.000013
   81  O  5 ZZ    0.000893   0.000918   0.000607  -0.000016   0.000005
   82  O  5 XY    0.000055   0.000132   0.000089   0.000578  -0.000012
   83  O  5 XZ   -0.000017  -0.000024  -0.000017   0.000002  -0.000003
   84  O  5 YZ    0.000029   0.000068   0.000046  -0.000012  -0.000578
   85  O  6  S   -0.071997  -0.000814   0.076000   0.003293   0.158556
   86  O  6  S    0.143541   0.001653  -0.151455  -0.006598  -0.317287
   87  O  6  X    0.000018  -0.000058  -0.000018  -0.003031   0.000035
   88  O  6  Y    0.000056   0.002995  -0.000029  -0.000009  -0.000061
   89  O  6  Z    0.006172   0.000040  -0.002736  -0.000095  -0.004275
   90  O  6  S    0.196855   0.002126  -0.211926  -0.009051  -0.437942
   91  O  6  X    0.000018   0.000042  -0.000028  -0.001825  -0.000029
   92  O  6  Y    0.000047   0.001882  -0.000090  -0.000086  -0.000180
   93  O  6  Z    0.003493   0.000034  -0.001545  -0.000090  -0.004121
   94  O  6 XX    0.000473   0.000002  -0.000942  -0.000020  -0.000967
   95  O  6 YY    0.000790   0.000007  -0.000174  -0.000026  -0.001282
   96  O  6 ZZ   -0.001264  -0.000009   0.001116   0.000046   0.002248
   97  O  6 XY   -0.000058   0.000000   0.000064   0.000001   0.000135
   98  O  6 XZ    0.000004   0.000000  -0.000008  -0.000554  -0.000011
   99  O  6 YZ    0.000010   0.000562  -0.000030  -0.000013  -0.000061
  100  O  7  S   -0.071997   0.000814   0.076000  -0.003293  -0.158556
  101  O  7  S    0.143541  -0.001653  -0.151455   0.006598   0.317287
  102  O  7  X   -0.000018  -0.000058   0.000018  -0.003031   0.000035
  103  O  7  Y   -0.000056   0.002995   0.000029  -0.000009  -0.000061
  104  O  7  Z   -0.006172   0.000040   0.002736  -0.000095  -0.004275
  105  O  7  S    0.196855  -0.002126  -0.211926   0.009051   0.437942
  106  O  7  X   -0.000018   0.000042   0.000028  -0.001825  -0.000029
  107  O  7  Y   -0.000047   0.001882   0.000090  -0.000086  -0.000180
  108  O  7  Z   -0.003493   0.000034   0.001545  -0.000090  -0.004121
  109  O  7 XX    0.000473  -0.000002  -0.000942   0.000020   0.000967
  110  O  7 YY    0.000790  -0.000007  -0.000174   0.000026   0.001282
  111  O  7 ZZ   -0.001264   0.000009   0.001116  -0.000046  -0.002248
  112  O  7 XY   -0.000058   0.000000   0.000064  -0.000001  -0.000135
  113  O  7 XZ    0.000004   0.000000  -0.000008   0.000554   0.000011
  114  O  7 YZ    0.000010  -0.000562  -0.000030   0.000013   0.000061

                     16         17         18         19         20
                   -4.5524    -4.0327    -4.0156    -4.0084    -3.9968
                     A          A          A          A          A   
    1  FE 1  S   -0.000495  -0.011345   0.002473   0.002896  -0.000926
    2  FE 1  S    0.001299   0.004725  -0.001262  -0.001536   0.000476
    3  FE 1  S    0.000242  -0.000514  -0.000126  -0.000305   0.000209
    4  FE 1  X    0.000000   0.000000   0.000000   0.000000   0.000000
    5  FE 1  Y    0.000000   0.000000   0.000000   0.000000   0.000000
    6  FE 1  Z    0.000000   0.000000   0.000000   0.000000   0.000000
    7  FE 1  X    0.000000   0.000000   0.000000   0.000000   0.000000
    8  FE 1  Y    0.000000   0.000000   0.000000   0.000000   0.000000
    9  FE 1  Z    0.000000   0.000000   0.000000   0.000000   0.000000
   10  FE 1  X    0.000000   0.000000   0.000000   0.000000   0.000000
   11  FE 1  Y    0.000000   0.000000   0.000000   0.000000   0.000000
   12  FE 1  Z    0.000000   0.000000   0.000000   0.000000   0.000000
   13  FE 1 XX   -0.047857  -0.413668  -0.460022  -0.120919  -0.535245
   14  FE 1 YY   -0.003361   0.822261   0.067648   0.151073  -0.064029
   15  FE 1 ZZ    0.051219  -0.408594   0.392374  -0.030154   0.599274
   16  FE 1 XY    0.001267  -0.156551   0.578563   0.364151  -0.442610
   17  FE 1 XZ   -0.000014   0.057802   0.019327  -0.297121   0.008812
   18  FE 1 YZ   -0.000611  -0.082880  -0.357712   0.678421   0.204173
   19  FE 1 XX   -0.010126  -0.101847  -0.117388  -0.030834  -0.140208
   20  FE 1 YY   -0.000653   0.202688   0.016887   0.038289  -0.016591
   21  FE 1 ZZ    0.010779  -0.100841   0.100501  -0.007454   0.156799
   22  FE 1 XY    0.000353  -0.039929   0.151931   0.097000  -0.120680
   23  FE 1 XZ   -0.000009   0.014692   0.005076  -0.079086   0.002400
   24  FE 1 YZ   -0.000198  -0.021137  -0.093913   0.180681   0.055662
   25  O  2  S    0.106560  -0.007854  -0.008954  -0.002366  -0.010134
   26  O  2  S   -0.212338   0.014757   0.016518   0.004325   0.018514
   27  O  2  X   -0.002220  -0.050408  -0.063683  -0.017575  -0.082911
   28  O  2  Y   -0.000107   0.011878  -0.050805  -0.034175   0.046224
   29  O  2  Z   -0.000015  -0.004350  -0.001604   0.027381  -0.000994
   30  O  2  S   -0.298970   0.041903   0.049077   0.013145   0.056916
   31  O  2  X   -0.001222  -0.037046  -0.047402  -0.013228  -0.063423
   32  O  2  Y   -0.000252   0.010631  -0.047462  -0.032254   0.044132
   33  O  2  Z   -0.000047  -0.003939  -0.001468   0.025604  -0.001012
   34  O  2 XX    0.001481  -0.001921  -0.001978  -0.000517  -0.002380
   35  O  2 YY   -0.001145   0.001237   0.000883   0.000295   0.000993
   36  O  2 ZZ   -0.000336   0.000684   0.001095   0.000222   0.001387
   37  O  2 XY   -0.000077   0.000087  -0.000685  -0.000456   0.000549
   38  O  2 XZ   -0.000015  -0.000054  -0.000023   0.000322  -0.000030
   39  O  2 YZ    0.000047  -0.000051  -0.000257   0.000521   0.000176
   40  O  3  S    0.106560  -0.007854  -0.008954  -0.002366  -0.010134
   41  O  3  S   -0.212338   0.014757   0.016518   0.004325   0.018514
   42  O  3  X    0.002220   0.050408   0.063683   0.017575   0.082911
   43  O  3  Y    0.000107  -0.011878   0.050805   0.034175  -0.046224
   44  O  3  Z    0.000015   0.004350   0.001604  -0.027381   0.000994
   45  O  3  S   -0.298970   0.041903   0.049077   0.013145   0.056916
   46  O  3  X    0.001222   0.037046   0.047402   0.013228   0.063423
   47  O  3  Y    0.000252  -0.010631   0.047462   0.032254  -0.044132
   48  O  3  Z    0.000047   0.003939   0.001468  -0.025604   0.001012
   49  O  3 XX    0.001481  -0.001921  -0.001978  -0.000517  -0.002380
   50  O  3 YY   -0.001145   0.001237   0.000883   0.000295   0.000993
   51  O  3 ZZ   -0.000336   0.000684   0.001095   0.000222   0.001387
   52  O  3 XY   -0.000077   0.000087  -0.000685  -0.000456   0.000549
   53  O  3 XZ   -0.000015  -0.000054  -0.000023   0.000322  -0.000030
   54  O  3 YZ    0.000047  -0.000051  -0.000257   0.000521   0.000176
   55  O  4  S    0.005247   0.016308   0.001237   0.002808  -0.001190
   56  O  4  S   -0.010460  -0.031018  -0.002374  -0.005334   0.002240
   57  O  4  X   -0.000029   0.012596  -0.053361  -0.035867   0.048917
   58  O  4  Y   -0.000009   0.108820   0.009529   0.022627  -0.010444
   59  O  4  Z    0.000011   0.006654   0.032966  -0.066788  -0.022558
   60  O  4  S   -0.014851  -0.086177  -0.006608  -0.015202   0.006545
   61  O  4  X   -0.000006   0.011772  -0.050075  -0.033961   0.047160
   62  O  4  Y   -0.000042   0.081482   0.007383   0.017605  -0.008222
   63  O  4  Z   -0.000012   0.006209   0.030950  -0.063290  -0.021765
   64  O  4 XX   -0.000562  -0.002051  -0.000452  -0.000443  -0.000176
   65  O  4 YY    0.000052   0.004107   0.000382   0.000831  -0.000352
   66  O  4 ZZ    0.000509  -0.002056   0.000069  -0.000389   0.000528
   67  O  4 XY    0.000003   0.000267  -0.000771  -0.000511   0.000738
   68  O  4 XZ    0.000001   0.000043   0.000017  -0.000275   0.000009
   69  O  4 YZ   -0.000006   0.000139   0.000484  -0.000976  -0.000349
   70  O  5  S    0.005247   0.016308   0.001237   0.002808  -0.001190
   71  O  5  S   -0.010460  -0.031018  -0.002374  -0.005334   0.002240
   72  O  5  X    0.000029  -0.012596   0.053361   0.035867  -0.048917
   73  O  5  Y    0.000009  -0.108820  -0.009529  -0.022627   0.010444
   74  O  5  Z   -0.000011  -0.006654  -0.032966   0.066788   0.022558
   75  O  5  S   -0.014851  -0.086177  -0.006608  -0.015202   0.006545
   76  O  5  X    0.000006  -0.011772   0.050075   0.033961  -0.047160
   77  O  5  Y    0.000042  -0.081482  -0.007383  -0.017605   0.008222
   78  O  5  Z    0.000012  -0.006209  -0.030950   0.063290   0.021765
   79  O  5 XX   -0.000562  -0.002051  -0.000452  -0.000443  -0.000176
   80  O  5 YY    0.000052   0.004107   0.000382   0.000831  -0.000352
   81  O  5 ZZ    0.000509  -0.002056   0.000069  -0.000389   0.000528
   82  O  5 XY    0.000003   0.000267  -0.000771  -0.000511   0.000738
   83  O  5 XZ    0.000001   0.000043   0.000017  -0.000275   0.000009
   84  O  5 YZ   -0.000006   0.000139   0.000484  -0.000976  -0.000349
   85  O  6  S   -0.118347  -0.007767   0.007557  -0.000624   0.011370
   86  O  6  S    0.235806   0.014555  -0.013946   0.001118  -0.020697
   87  O  6  X    0.000018  -0.004331  -0.001737   0.027380  -0.000816
   88  O  6  Y    0.000061   0.006260   0.031203  -0.063216  -0.021159
   89  O  6  Z    0.002685  -0.049582   0.053711  -0.004471   0.092315
   90  O  6  S    0.331794   0.041511  -0.041404   0.003517  -0.064026
   91  O  6  X    0.000052  -0.003918  -0.001627   0.025655  -0.000710
   92  O  6  Y    0.000144   0.005600   0.029083  -0.059508  -0.020151
   93  O  6  Z    0.001432  -0.036301   0.039892  -0.003355   0.070430
   94  O  6 XX    0.000487   0.000657  -0.000987  -0.000004  -0.001451
   95  O  6 YY    0.001193   0.001203  -0.000696   0.000121  -0.001155
   96  O  6 ZZ   -0.001680  -0.001860   0.001683  -0.000117   0.002606
   97  O  6 XY   -0.000101  -0.000095   0.000407   0.000274  -0.000374
   98  O  6 XZ    0.000017  -0.000052  -0.000017   0.000327   0.000008
   99  O  6 YZ    0.000044   0.000045   0.000402  -0.000798  -0.000237
  100  O  7  S   -0.118347  -0.007767   0.007557  -0.000624   0.011370
  101  O  7  S    0.235806   0.014555  -0.013946   0.001118  -0.020697
  102  O  7  X   -0.000018   0.004331   0.001737  -0.027380   0.000816
  103  O  7  Y   -0.000061  -0.006260  -0.031203   0.063216   0.021159
  104  O  7  Z   -0.002685   0.049582  -0.053711   0.004471  -0.092315
  105  O  7  S    0.331794   0.041511  -0.041404   0.003517  -0.064026
  106  O  7  X   -0.000052   0.003918   0.001627  -0.025655   0.000710
  107  O  7  Y   -0.000144  -0.005600  -0.029083   0.059508   0.020151
  108  O  7  Z   -0.001432   0.036301  -0.039892   0.003355  -0.070430
  109  O  7 XX    0.000487   0.000657  -0.000987  -0.000004  -0.001451
  110  O  7 YY    0.001193   0.001203  -0.000696   0.000121  -0.001155
  111  O  7 ZZ   -0.001680  -0.001860   0.001683  -0.000117   0.002606
  112  O  7 XY   -0.000101  -0.000095   0.000407   0.000274  -0.000374
  113  O  7 XZ    0.000017  -0.000052  -0.000017   0.000327   0.000008
  114  O  7 YZ    0.000044   0.000045   0.000402  -0.000798  -0.000237

                     21         22         23         24         25
                   -3.9512    -3.9077    -3.8843    -3.8826    -3.8821
                     A          A          A          A          A   
    1  FE 1  S    0.002471  -0.009629   0.000000   0.000000   0.000000
    2  FE 1  S   -0.003197   0.264243   0.000000   0.000000   0.000000
    3  FE 1  S   -0.000056  -0.024118   0.000000   0.000000   0.000000
    4  FE 1  X    0.000000   0.000000  -0.028901   0.048915  -0.051615
    5  FE 1  Y    0.000000   0.000000   0.074768   0.010723  -0.031428
    6  FE 1  Z    0.000000   0.000000  -0.012038  -0.058029  -0.048207
    7  FE 1  X    0.000000   0.000000   0.063750  -0.103283   0.107486
    8  FE 1  Y    0.000000   0.000000  -0.154359  -0.021200   0.061281
    9  FE 1  Z    0.000000   0.000000   0.026735   0.123373   0.101082
   10  FE 1  X    0.000000   0.000000  -0.011864   0.019012  -0.019716
   11  FE 1  Y    0.000000   0.000000   0.029879   0.004078  -0.011763
   12  FE 1  Z    0.000000   0.000000  -0.004961  -0.022637  -0.018480
   13  FE 1 XX    0.000444   0.011354   0.000000   0.000000   0.000000
   14  FE 1 YY   -0.001084  -0.026951   0.000000   0.000000   0.000000
   15  FE 1 ZZ    0.000640   0.015597   0.000000   0.000000   0.000000
   16  FE 1 XY    0.119804   0.008670   0.000000   0.000000   0.000000
   17  FE 1 XZ    0.687088   0.004647   0.000000   0.000000   0.000000
   18  FE 1 YZ    0.230563   0.005255   0.000000   0.000000   0.000000
   19  FE 1 XX    0.000167  -0.000522   0.000000   0.000000   0.000000
   20  FE 1 YY   -0.000404   0.001037   0.000000   0.000000   0.000000
   21  FE 1 ZZ    0.000237  -0.000515   0.000000   0.000000   0.000000
   22  FE 1 XY    0.036870  -0.002204   0.000000   0.000000   0.000000
   23  FE 1 XZ    0.209874   0.000866   0.000000   0.000000   0.000000
   24  FE 1 YZ    0.070848  -0.000823   0.000000   0.000000   0.000000
   25  O  2  S   -0.000146   0.013142  -0.004740   0.007732  -0.008064
   26  O  2  S    0.000277  -0.027574   0.008863  -0.014399   0.014996
   27  O  2  X   -0.001165   0.202736  -0.077820   0.131628  -0.138874
   28  O  2  Y   -0.021891   0.002090  -0.184277  -0.026677   0.078290
   29  O  2  Z   -0.122156  -0.001128   0.030119   0.145657   0.121186
   30  O  2  S    0.000740  -0.059858   0.029254  -0.047678   0.049712
   31  O  2  X   -0.001024   0.191286  -0.077884   0.131498  -0.138662
   32  O  2  Y   -0.022352   0.002302  -0.194349  -0.027946   0.082548
   33  O  2  Z   -0.124186  -0.001200   0.031512   0.152978   0.127306
   34  O  2 XX    0.000020   0.001339  -0.000381   0.000631  -0.000662
   35  O  2 YY   -0.000011  -0.000634   0.000035  -0.000164   0.000170
   36  O  2 ZZ   -0.000009  -0.000705   0.000346  -0.000466   0.000492
   37  O  2 XY   -0.000322   0.000081  -0.003011  -0.000338   0.001147
   38  O  2 XZ   -0.001729  -0.000006   0.000455   0.002229   0.001818
   39  O  2 YZ    0.000241  -0.000009   0.000003   0.000050   0.000063
   40  O  3  S   -0.000146   0.013142   0.004740  -0.007732   0.008064
   41  O  3  S    0.000277  -0.027574  -0.008863   0.014399  -0.014996
   42  O  3  X    0.001165  -0.202736  -0.077820   0.131628  -0.138874
   43  O  3  Y    0.021891  -0.002090  -0.184277  -0.026677   0.078290
   44  O  3  Z    0.122156   0.001128   0.030119   0.145657   0.121186
   45  O  3  S    0.000740  -0.059858  -0.029254   0.047678  -0.049712
   46  O  3  X    0.001024  -0.191286  -0.077884   0.131498  -0.138662
   47  O  3  Y    0.022352  -0.002302  -0.194349  -0.027946   0.082548
   48  O  3  Z    0.124186   0.001200   0.031512   0.152978   0.127306
   49  O  3 XX    0.000020   0.001339   0.000381  -0.000631   0.000662
   50  O  3 YY   -0.000011  -0.000634  -0.000035   0.000164  -0.000170
   51  O  3 ZZ   -0.000009  -0.000705  -0.000346   0.000466  -0.000492
   52  O  3 XY   -0.000322   0.000081   0.003011   0.000338  -0.001147
   53  O  3 XZ   -0.001729  -0.000006  -0.000455  -0.002229  -0.001818
   54  O  3 YZ    0.000241  -0.000009  -0.000003  -0.000050  -0.000063
[...]
    2    0.0857664   9.7633090
    3    0.0857664  -0.0000377   9.7633090
    4    0.0951065  -0.0070496  -0.0073616   9.7495606
    5    0.0951065  -0.0073616  -0.0070496  -0.0000491   9.7495606
    6    0.0848372  -0.0069411  -0.0069953  -0.0071028  -0.0072643
    7    0.0848372  -0.0069953  -0.0069411  -0.0072643  -0.0071028
    8    0.0000000   0.0000000   0.0000000   0.0000000   0.0000000
    9    0.0000000   0.0000000   0.0000000   0.0000000   0.0000000
   10    0.0000000   0.0000000   0.0000000   0.0000000   0.0000000
   11    0.0000000   0.0000000   0.0000000   0.0000000   0.0000000
   12    0.0000000   0.0000000   0.0000000   0.0000000   0.0000000
   13    0.0000000   0.0000000   0.0000000   0.0000000   0.0000000
   14    0.0000000   0.0000000   0.0000000   0.0000000   0.0000000
   15    0.0000000   0.0000000   0.0000000   0.0000000   0.0000000
   16    0.0000000   0.0000000   0.0000000   0.0000000   0.0000000
   17    0.0000000   0.0000000   0.0000000   0.0000000   0.0000000
   18    0.0000000   0.0000000   0.0000000   0.0000000   0.0000000
   19    0.0000000   0.0000000   0.0000000   0.0000000   0.0000000
   20    0.0000000   0.0000000   0.0000000   0.0000000   0.0000000
   21    0.0000000   0.0000000   0.0000000   0.0000000   0.0000000
   22    0.0000000   0.0000000   0.0000000   0.0000000   0.0000000
   23    0.0000000   0.0000000   0.0000000   0.0000000   0.0000000
   24    0.0000000   0.0000000   0.0000000   0.0000000   0.0000000
   25    0.0000000   0.0000000   0.0000000   0.0000000   0.0000000

             6           7           8           9          10

    6    9.7646665
    7   -0.0000366   9.7646665
    8    0.0000000   0.0000000   0.0000000
    9    0.0000000   0.0000000   0.0000000   0.0000000
   10    0.0000000   0.0000000   0.0000000   0.0000000   0.0000000
   11    0.0000000   0.0000000   0.0000000   0.0000000   0.0000000
   12    0.0000000   0.0000000   0.0000000   0.0000000   0.0000000
   13    0.0000000   0.0000000   0.0000000   0.0000000   0.0000000
   14    0.0000000   0.0000000   0.0000000   0.0000000   0.0000000
   15    0.0000000   0.0000000   0.0000000   0.0000000   0.0000000
   16    0.0000000   0.0000000   0.0000000   0.0000000   0.0000000
   17    0.0000000   0.0000000   0.0000000   0.0000000   0.0000000
   18    0.0000000   0.0000000   0.0000000   0.0000000   0.0000000
   19    0.0000000   0.0000000   0.0000000   0.0000000   0.0000000
   20    0.0000000   0.0000000   0.0000000   0.0000000   0.0000000
   21    0.0000000   0.0000000   0.0000000   0.0000000   0.0000000
   22    0.0000000   0.0000000   0.0000000   0.0000000   0.0000000
   23    0.0000000   0.0000000   0.0000000   0.0000000   0.0000000
   24    0.0000000   0.0000000   0.0000000   0.0000000   0.0000000
   25    0.0000000   0.0000000   0.0000000   0.0000000   0.0000000

            11          12          13          14          15

   11    0.0000000
   12    0.0000000   0.0000000
   13    0.0000000   0.0000000   0.0000000
   14    0.0000000   0.0000000   0.0000000   0.0000000
   15    0.0000000   0.0000000   0.0000000   0.0000000   0.0000000
   16    0.0000000   0.0000000   0.0000000   0.0000000   0.0000000
   17    0.0000000   0.0000000   0.0000000   0.0000000   0.0000000
   18    0.0000000   0.0000000   0.0000000   0.0000000   0.0000000
   19    0.0000000   0.0000000   0.0000000   0.0000000   0.0000000
   20    0.0000000   0.0000000   0.0000000   0.0000000   0.0000000
   21    0.0000000   0.0000000   0.0000000   0.0000000   0.0000000
   22    0.0000000   0.0000000   0.0000000   0.0000000   0.0000000
   23    0.0000000   0.0000000   0.0000000   0.0000000   0.0000000
   24    0.0000000   0.0000000   0.0000000   0.0000000   0.0000000
   25    0.0000000   0.0000000   0.0000000   0.0000000   0.0000000

            16          17          18          19          20

   16    0.0000000
   17    0.0000000   0.0000000
   18    0.0000000   0.0000000   0.0000000
   19    0.0000000   0.0000000   0.0000000   0.0000000
   20    0.0000000   0.0000000   0.0000000   0.0000000   0.0000000
   21    0.0000000   0.0000000   0.0000000   0.0000000   0.0000000
   22    0.0000000   0.0000000   0.0000000   0.0000000   0.0000000
   23    0.0000000   0.0000000   0.0000000   0.0000000   0.0000000
   24    0.0000000   0.0000000   0.0000000   0.0000000   0.0000000
   25    0.0000000   0.0000000   0.0000000   0.0000000   0.0000000

            21          22          23          24          25

   21    0.0000000
   22    0.0000000   0.0000000
   23    0.0000000   0.0000000   0.0000000
   24    0.0000000   0.0000000   0.0000000   0.0000000
   25    0.0000000   0.0000000   0.0000000   0.0000000   0.0000000

          TOTAL MULLIKEN AND LOWDIN ATOMIC POPULATIONS
       ATOM         MULL.POP.    CHARGE          LOW.POP.     CHARGE
    1 FE           15.084613    0.915387        16.283354   -0.283354
    2 O             9.820690   -1.820690         9.621253   -1.621253
    3 O             9.820690   -1.820690         9.621253   -1.621253
    4 O             9.815840   -1.815840         9.615229   -1.615229
    5 O             9.815840   -1.815840         9.615229   -1.615229
    6 O             9.821164   -1.821164         9.621841   -1.621841
    7 O             9.821164   -1.821164         9.621841   -1.621841
    8 MG            0.000000    2.000000         0.000000    2.000000
    9 MG            0.000000    2.000000         0.000000    2.000000
   10 MG            0.000000    2.000000         0.000000    2.000000
   11 MG            0.000000    2.000000         0.000000    2.000000
   12 MG            0.000000    2.000000         0.000000    2.000000
   13 MG            0.000000    2.000000         0.000000    2.000000
   14 MG            0.000000    2.000000         0.000000    2.000000
   15 MG            0.000000    2.000000         0.000000    2.000000
   16 MG            0.000000    2.000000         0.000000    2.000000
   17 MG            0.000000    2.000000         0.000000    2.000000
   18 MG            0.000000    2.000000         0.000000    2.000000
   19 MG            0.000000    2.000000         0.000000    2.000000
   20 MG            0.000000    2.000000         0.000000    2.000000
   21 MG            0.000000    2.000000         0.000000    2.000000
   22 MG            0.000000    2.000000         0.000000    2.000000
   23 MG            0.000000    2.000000         0.000000    2.000000
   24 MG            0.000000    2.000000         0.000000    2.000000
   25 MG            0.000000    2.000000         0.000000    2.000000

          MULLIKEN SPHERICAL HARMONIC POPULATIONS
       ATOM           S       P       D      F      G      H      I    TOTAL
    1 FE            2.32    6.51    6.26   0.00   0.00   0.00   0.00   15.08
    2 O             3.97    5.85    0.00   0.00   0.00   0.00   0.00    9.82
    3 O             3.97    5.85    0.00   0.00   0.00   0.00   0.00    9.82
    4 O             3.97    5.84    0.00   0.00   0.00   0.00   0.00    9.82
    5 O             3.97    5.84    0.00   0.00   0.00   0.00   0.00    9.82
    6 O             3.97    5.85    0.00   0.00   0.00   0.00   0.00    9.82
    7 O             3.97    5.85    0.00   0.00   0.00   0.00   0.00    9.82
    8 MG            0.00    0.00    0.00   0.00   0.00   0.00   0.00    0.00
    9 MG            0.00    0.00    0.00   0.00   0.00   0.00   0.00    0.00
   10 MG            0.00    0.00    0.00   0.00   0.00   0.00   0.00    0.00
   11 MG            0.00    0.00    0.00   0.00   0.00   0.00   0.00    0.00
   12 MG            0.00    0.00    0.00   0.00   0.00   0.00   0.00    0.00
   13 MG            0.00    0.00    0.00   0.00   0.00   0.00   0.00    0.00
   14 MG            0.00    0.00    0.00   0.00   0.00   0.00   0.00    0.00
   15 MG            0.00    0.00    0.00   0.00   0.00   0.00   0.00    0.00
   16 MG            0.00    0.00    0.00   0.00   0.00   0.00   0.00    0.00
   17 MG            0.00    0.00    0.00   0.00   0.00   0.00   0.00    0.00
   18 MG            0.00    0.00    0.00   0.00   0.00   0.00   0.00    0.00
   19 MG            0.00    0.00    0.00   0.00   0.00   0.00   0.00    0.00
   20 MG            0.00    0.00    0.00   0.00   0.00   0.00   0.00    0.00
   21 MG            0.00    0.00    0.00   0.00   0.00   0.00   0.00    0.00
   22 MG            0.00    0.00    0.00   0.00   0.00   0.00   0.00    0.00
   23 MG            0.00    0.00    0.00   0.00   0.00   0.00   0.00    0.00
   24 MG            0.00    0.00    0.00   0.00   0.00   0.00   0.00    0.00
   25 MG            0.00    0.00    0.00   0.00   0.00   0.00   0.00    0.00

          -------------------------------
          BOND ORDER AND VALENCE ANALYSIS     BOND ORDER THRESHOLD=0.050
          -------------------------------

                   BOND                       BOND                       BOND
  ATOM PAIR DIST  ORDER      ATOM PAIR DIST  ORDER      ATOM PAIR DIST  ORDER
    1   2  2.167  0.315        1   3  2.167  0.315        1   4  2.167  0.327
    1   5  2.167  0.327        1   6  2.167  0.314        1   7  2.167  0.314

                       TOTAL       BONDED        FREE
      ATOM            VALENCE     VALENCE     VALENCE
    1 FE                5.747       1.912       3.835
    2 O                 0.330       0.329       0.001
    3 O                 0.330       0.329       0.001
    4 O                 0.342       0.341       0.001
    5 O                 0.342       0.341       0.001
    6 O                 0.328       0.328       0.001
    7 O                 0.328       0.328       0.001
    8 MG                0.000       0.000       0.000
    9 MG                0.000       0.000       0.000
   10 MG                0.000       0.000       0.000
   11 MG                0.000       0.000       0.000
   12 MG                0.000       0.000       0.000
   13 MG                0.000       0.000       0.000
   14 MG                0.000       0.000       0.000
   15 MG                0.000       0.000       0.000
   16 MG                0.000       0.000       0.000
   17 MG                0.000       0.000       0.000
   18 MG                0.000       0.000       0.000
   19 MG                0.000       0.000       0.000
   20 MG                0.000       0.000       0.000
   21 MG                0.000       0.000       0.000
   22 MG                0.000       0.000       0.000
   23 MG                0.000       0.000       0.000
   24 MG                0.000       0.000       0.000
   25 MG                0.000       0.000       0.000

          -----------------------------------------
          ATOMIC SPIN DENSITY AT THE NUCLEUS (A.U.)
          -----------------------------------------
                            SPIN DENS    ALPHA DENS     BETA DENS
    1  FE          16.0     0.0000300       0.00008       0.00005
    2  O            8.0     0.0445302     145.46214     145.41761
    3  O            8.0     0.0445302     145.46214     145.41761
    4  O            8.0     0.0461268     145.46679     145.42066
    5  O            8.0     0.0461268     145.46679     145.42066
    6  O            8.0     0.0444125     145.46171     145.41730
    7  O            8.0     0.0444125     145.46171     145.41730
    8  MG           2.0     0.0000016       0.00006       0.00006
    9  MG           2.0     0.0000015       0.00006       0.00006
   10  MG           2.0     0.0000016       0.00006       0.00006
   11  MG           2.0     0.0000016       0.00006       0.00006
   12  MG           2.0     0.0000015       0.00006       0.00006
   13  MG           2.0     0.0000016       0.00006       0.00006
   14  MG           2.0    -0.0000007       0.00015       0.00015
   15  MG           2.0    -0.0000004       0.00015       0.00015
   16  MG           2.0    -0.0000004       0.00015       0.00015
   17  MG           2.0    -0.0000007       0.00015       0.00015
   18  MG           2.0    -0.0000004       0.00015       0.00015
   19  MG           2.0    -0.0000003       0.00015       0.00015
   20  MG           2.0    -0.0000003       0.00015       0.00015
   21  MG           2.0    -0.0000004       0.00015       0.00015
   22  MG           2.0    -0.0000009       0.00015       0.00015
   23  MG           2.0    -0.0000003       0.00015       0.00015
   24  MG           2.0    -0.0000003       0.00015       0.00015
   25  MG           2.0    -0.0000009       0.00015       0.00015

          ---------------------
          ELECTROSTATIC MOMENTS
          ---------------------

 POINT   1           X           Y           Z (BOHR)    CHARGE
                32.760290   32.760290   32.760290       26.00 (A.U.)
         DX          DY          DZ         /D/  (DEBYE)
     0.000000    0.000000    0.000000    0.000000
 ...... END OF PROPERTY EVALUATION ......
 ON NODE 0, STEP CPU TIME =     2.22 TOTAL CPU TIME =        2.4 (    0.0 MIN)
 TOTAL WALL CLOCK TIME=        0.0 SECONDS, CPU UTILIZATION IS 100.00%
         
 ---------------------------------------
 END OF PRELIMINARY POPULATION STUFF
 Found OrbsAA
 populations of d orbitals
 orb        alpha        beta
  D1       1.0051       0.0591
  D2       1.0053       0.0628
  D3       1.0151       0.0612
  D4       1.0140       0.8841
  D5       1.0150       0.1350
  D6       0.0000       0.0000
     
 d-d interactions:
  A-A:      10.2190
  B-B:       0.3171
  A-B:       6.0763
   
 denominators:
  U:      16.6124
  J:      10.5361
         
 ---------------------------------------
 START OF ALPHA COULOMB AND EXCHANGE
 END OF ALPHA COULOMB AND EXCHANGE
 ---------------------------------------
         
 ---------------------------------------
 START OF BETA COULOMB AND EXCHANGE
 END OF BETA COULOMB AND EXCHANGE
 ---------------------------------------
         
 ---------------------------------------
 START OF SELF-INTERACTION
 !!!!!!!!!!!!!!!!!!!!!!!!!!!!!!!!!!!!!!!!!!!!!!
 !!!!!!!!!!!!!!!!!!!!!!!!!!!!!!!!!!!!!!!!!!!!!!
 !!                                          !!
    Screening out all orbitals
    with populations of less than:
        0.000000000000000E+000
    from the self-interaction energy 
    calculation.
    
    alpha orbital populations: 
                     1  0.000000000000000E+000
                     2  9.518165875555818E-005
                     3  0.000000000000000E+000
                     4  9.442705399729621E-005
                     5  0.000000000000000E+000
                     6  9.559766361939533E-005
                     7  2.034156485319404E-004
                     8  0.000000000000000E+000
                     9  0.000000000000000E+000
                    10  0.000000000000000E+000
                    11  7.849600931726698E-004
                    12  0.000000000000000E+000
                    13  1.159233101178319E-002
                    14  1.781310538398524E-021
                    15  1.922905104119143E-022
                    16  1.148775047146700E-002
                    17  0.871079296899736     
                    18  0.888559294988056     
                    19  0.894278447789063     
                    20  0.847357488852207     
                    21  0.734093611321364     
                    22  8.174229103290750E-004
                    23  0.000000000000000E+000
                    24  0.000000000000000E+000
                    25  0.000000000000000E+000
                    26  0.118396114928664     
                    27  0.117695001111639     
                    28  0.000000000000000E+000
                    29  0.000000000000000E+000
                    30  0.000000000000000E+000
                    31  0.276375701715679     
                    32  1.157902005311774E-003
                    33  2.709188865212564E-003
                    34  9.929224219931716E-005
                    35  0.000000000000000E+000
                    36  0.000000000000000E+000
                    37  0.000000000000000E+000
                    38  0.125060993435630     
                    39  0.152429000590956     
  
    keeping                    23 of                    39
    alpha orbitals for self-interaction
  
    beta orbital populations:
                     1  0.000000000000000E+000
                     2  9.561383049100697E-005
                     3  0.000000000000000E+000
                     4  9.503109143848553E-005
                     5  0.000000000000000E+000
                     6  9.640718588264273E-005
                     7  9.926835080299137E-007
                     8  0.000000000000000E+000
                     9  0.000000000000000E+000
                    10  0.000000000000000E+000
                    11  2.768236367328164E-004
                    12  0.000000000000000E+000
                    13  0.000000000000000E+000
                    14  0.000000000000000E+000
                    15  5.770377951352703E-003
                    16  5.554673297856691E-003
                    17  8.644895307212101E-003
                    18  0.194672150921944     
                    19  3.383868784144593E-002
                    20  3.419834535654474E-002
                    21  0.000000000000000E+000
                    22  0.000000000000000E+000
                    23  0.000000000000000E+000
                    24  0.000000000000000E+000
                    25  0.000000000000000E+000
                    26  0.000000000000000E+000
                    27  5.765609820490369E-002
                    28  1.188999969129774E-004
                    29  3.780039826342540E-004
                    30  7.694500656549849E-005
                    31  5.186823780686105E-002
                    32  0.000000000000000E+000
                    33  0.000000000000000E+000
                    34  0.000000000000000E+000
                    35  0.808821978932514     
    keeping                    17 of                    35
    beta orbitals for self-interaction 
 !!                                           !! 
 !!             Done screening                !!
 !!                                           !!
 !!!!!!!!!!!!!!!!!!!!!!!!!!!!!!!!!!!!!!!!!!!!!!
 !!!!!!!!!!!!!!!!!!!!!!!!!!!!!!!!!!!!!!!!!!!!!!
 END OF SELF-INTERACTION
 ---------------------------------------
                 
 ===============================================
 ===============================================
 !!                                           !!
 !!               SUMMARY OF INTEGRALS        !!
 !!                                           !!
 -----------------------------------------------
                                        
   U  [au]  [eV]:    0.5465      14.8646
   J  [au]  [eV]:    0.0261       0.7087
  U-J [au]  [eV]:    0.5204      14.1558
                                        
 Timing information for calculating U and J:
 ON NODE 0, STEP CPU TIME =     0.24 TOTAL CPU TIME =        2.6 (    0.0 MIN)
 TOTAL WALL CLOCK TIME=        0.0 SECONDS, CPU UTILIZATION IS 100.00%
 -----------------------------------------------
 ===============================================
 ===============================================
 ...... END OF UHF CALCULATION ......
 ON NODE 0, STEP CPU TIME =     0.00 TOTAL CPU TIME =        2.6 (    0.0 MIN)
 TOTAL WALL CLOCK TIME=        0.0 SECONDS, CPU UTILIZATION IS 100.00%
                440000  WORDS OF DYNAMIC MEMORY USED
 EXECUTION OF GAMESS TERMINATED NORMALLY Thu Aug 26 20:53:53 2010
 DDI: 1128 bytes (0.0 MB / 0 MWords) used by master data server.

 ----------------------------------------
 CPU timing information for all processes
 ========================================
 0: 2.502619 + 0.131979 = 2.634598
 1: 2.590606 + 0.089986 = 2.680592
 2: 2.533614 + 0.086986 = 2.620600
 3: 2.510618 + 0.079987 = 2.590605
 4: 2.561610 + 0.086986 = 2.648596
 5: 2.532614 + 0.076988 = 2.609602
 6: 2.542613 + 0.058991 = 2.601604
 7: 2.504619 + 0.063990 = 2.568609
 ----------------------------------------
 ddikick.x: exited gracefully.
----- accounting info -----
Thu Aug 26 20:53:56 EDT 2010
0.125u 0.080s 0:07.64 2.6%	0+0k 0+0io 0pf+0w
