----- GAMESS execution script -----
This job is running on host r7c2n2
under operating system Linux at Thu Aug 26 21:03:35 EDT 2010
found user scratch directory on r7c2n2
making job scratch directory on r7c2n2
Available scratch disk space (Kbyte units) at beginning of the job is
Filesystem           1K-blocks      Used Available Use% Mounted on
172.23.10.3:/scratch/network
                     1228072952 463341400 702359624  40% /scratch/network

 Distributed Data Interface kickoff program.
 Initiating 8 compute processes on 1 nodes to run the following command:

          ******************************************************
          *         GAMESS VERSION = 22 FEB 2006 (R5)          *
          *             FROM IOWA STATE UNIVERSITY             *
          * M.W.SCHMIDT, K.K.BALDRIDGE, J.A.BOATZ, S.T.ELBERT, *
          *   M.S.GORDON, J.H.JENSEN, S.KOSEKI, N.MATSUNAGA,   *
          *          K.A.NGUYEN, S.J.SU, T.L.WINDUS,           *
          *       TOGETHER WITH M.DUPUIS, J.A.MONTGOMERY       *
          *         J.COMPUT.CHEM.  14, 1347-1363(1993)        *
          **************** LINUX-ITANIUM VERSION ***************

     SINCE 1993, STUDENTS AND POSTDOCS WORKING AT IOWA STATE UNIVERSITY
     AND ALSO IN THEIR VARIOUS JOBS AFTER LEAVING ISU HAVE MADE IMPORTANT
     CONTRIBUTIONS TO THE CODE:
     IVANA ADAMOVIC, CHRISTINE AIKENS, YURI ALEXEEV, POOJA ARORA, ROB BELL,
     PRADIPTA BANDYOPADHYAY, BRETT BODE, GALINA CHABAN, WEI CHEN,
     CHEOL HO CHOI, PAUL DAY, TIM DUDLEY, DMITRI FEDOROV, GRAHAM FLETCHER,
     MARK FREITAG, KURT GLAESEMANN, GRANT MERRILL, TAKESHI NAGATA,
     HEATHER NETZLOFF, BOSILJKA NJEGIC, RYAN OLSON, MIKE PAK, JIM SHOEMAKER,
     LYUDMILA SLIPCHENKO, JIE SONG, TETSUYA TAKETSUGU, SIMON WEBB.

     ADDITIONAL CODE HAS BEEN PROVIDED BY COLLABORATORS IN OTHER GROUPS:
     IOWA STATE UNIVERSITY: JOE IVANIC, KLAUS RUEDENBERG
     UNIVERSITY OF TOKYO: KIMIHIKO HIRAO, HARUYUKI NAKANO, TAKAHITO
          NAKAJIMA, TAKAO TSUNEDA, MUNEAKI KAMIYA, SUSUMU YANAGISAWA,
          KIYOSHI YAGI
     UNIVERSITY OF SOUTHERN DENMARK: FRANK JENSEN
     UNIVERSITY OF IOWA: VISVALDAS KAIRYS, HUI LI
     NATIONAL INST. OF STANDARDS AND TECHNOLOGY: WALT STEVENS, DAVID GARMER
     UNIVERSITY OF PISA: BENEDETTA MENNUCCI, JACOPO TOMASI
     UNIVERSITY OF MEMPHIS: HENRY KURTZ, PRAKASHAN KORAMBATH
     UNIVERSITY OF ALBERTA: MARIUSZ KLOBUKOWSKI
     UNIVERSITY OF NEW ENGLAND: MARK SPACKMAN
     MIE UNIVERSITY: HIROAKI UMEDA
     MICHIGAN STATE UNIVERSITY:
          KAROL KOWALSKI, MARTA WLOCH, PIOTR PIECUCH
     UNIVERSITY OF SILESIA: MONIKA MUSIAL, STANISLAW KUCHARSKI
     FACULTES UNIVERSITAIRES NOTRE-DAME DE LA PAIX:
          OLIVIER QUINET, BENOIT CHAMPAGNE
     UNIVERSITY OF CALIFORNIA - SANTA BARBARA: BERNARD KIRTMAN
     INSTITUTE FOR MOLECULAR SCIENCE: KAZUYA ISHIMURA AND SHIGERU NAGASE
     UNIVERSITY OF NOTRE DAME: DAN CHIPMAN
     KYUSHU UNIVERSITY:
          FENG LONG GU, JACEK KORCHOWIEC, MARCIN MAKOWSKI, AND YURIKO AOKI
     PENNSYLVANIA STATE UNIVERSITY:
          TZVETELIN IORDANOV, CHET SWALINA, SHARON HAMMES-SCHIFFER


 PARALLEL VERSION RUNNING ON     8 PROCESSORS IN     1 NODES.

 EXECUTION OF GAMESS BEGUN Thu Aug 26 21:03:35 2010

            ECHO OF THE FIRST FEW INPUT CARDS -
 INPUT CARD> $CONTRL SCFTYP=UHF MULT=6 COORD=UNIQUE ICHARG=30 MAXIT=200 $END                
 INPUT CARD> $CONTRL PP=READ ISPHER=+1 $END                                                 
 INPUT CARD> $SCF    DIRSCF=.TRUE. SHIFT=.TRUE. $END                                        
 INPUT CARD> $GUESS  GUESS=HUCKEL $END                                                      
 INPUT CARD> $DATA                                                                          
 INPUT CARD>  Fe 1 O 6 Al 13                                                                
 INPUT CARD>  C1                                                                            
 INPUT CARD>Fe  26.0      29.070  15.105  20.323                                            
 INPUT CARD> S   3                                                                          
 INPUT CARD>  1        6.422000000        -0.3927882000                                     
 INPUT CARD>  2        1.826000000         0.7712643000                                     
 INPUT CARD>  3       0.7135000000         0.4920228000                                     
 INPUT CARD> S   4                                                                          
 INPUT CARD>  1        6.422000000         0.1786877000                                     
 INPUT CARD>  2        1.826000000        -0.4194032000                                     
 INPUT CARD>  3       0.7135000000        -0.4568185000                                     
 INPUT CARD>  4       0.1021000000          1.103504800                                     
 INPUT CARD> S   1                                                                          
 INPUT CARD>  1       0.3630000000E-01      1.000000000                                     
 INPUT CARD> P   3                                                                          
 INPUT CARD>  1        19.48000000        -0.4702820000E-01                                 
 INPUT CARD>  2        2.389000000         0.6248841000                                     
 INPUT CARD>  3       0.7795000000         0.4722542000                                     
 INPUT CARD> P   1                                                                          
 INPUT CARD>  1       0.7400000000E-01      1.000000000                                     
 INPUT CARD> P   1                                                                          
 INPUT CARD>  1       0.2200000000E-01      1.000000000                                     
 INPUT CARD> D   4                                                                          
 INPUT CARD>  1        37.08000000         0.3290000000E-01                                 
 INPUT CARD>  2        10.10000000         0.1787418000                                     
 INPUT CARD>  3        3.220000000         0.4487657000                                     
 INPUT CARD>  4       0.9628000000         0.5876361000                                     
 INPUT CARD> D   1                                                                          
 INPUT CARD>  1       0.2262000000          1.000000000                                     
 INPUT CARD>                                                                                
 INPUT CARD>O  8.0      30.378  14.350  21.766                                              
 INPUT CARD> S   6                                                                          
 INPUT CARD>  1        5484.671700         0.1831100000E-02                                 
 INPUT CARD>  2        825.2349500         0.1395010000E-01                                 
 INPUT CARD>  3        188.0469600         0.6844510000E-01                                 
 INPUT CARD>  4        52.96450000         0.2327143000                                     
 INPUT CARD>  5        16.89757000         0.4701930000                                     
 INPUT CARD>  6        5.799635300         0.3585209000                                     
 INPUT CARD> L   3                                                                          
 INPUT CARD>  1        15.53961600        -0.1107775000         0.7087430000E-01            
 INPUT CARD>  2        3.599933600        -0.1480263000         0.3397528000                
 INPUT CARD>  3        1.013761800          1.130767000         0.7271586000                
 INPUT CARD> L   1                                                                          
 INPUT CARD>  1       0.2700058000          1.000000000          1.000000000                
 INPUT CARD> D   1                                                                          

 ..... DONE SETTING UP THE RUN .....
    1000000 WORDS OF MEMORY AVAILABLE


     RUN TITLE
     ---------
   Fe 1 O 6 Al 13                                                                

 THE POINT GROUP OF THE MOLECULE IS C1      
 THE ORDER OF THE PRINCIPAL AXIS IS     0

 ATOM      ATOMIC                      COORDINATES (BOHR)
           CHARGE         X                   Y                   Z
 FE         26.0    54.9343344631       28.5443110445       38.4049012485
 O           8.0    57.4060960550       27.1175679238       41.1317758488
 O           8.0    54.9343344631       31.3977972860       41.1317758488
 O           8.0    52.4606831451       27.1175679238       41.1317758488
 O           8.0    57.9541165915       29.9710541653       36.8024136109
 O           8.0    52.1866728769       30.4472651142       36.8024136109
 O           8.0    54.6584344689       25.2146138542       36.8024136109
 AL         13.0    49.4409010168       28.5443110445       35.1999259733
 AL         13.0    57.6801063232       23.7878707334       35.1999259733
 AL         13.0    57.6801063232       33.3007513556       35.1999259733
 AL         13.0    49.4409010168       28.5443110445       42.7342634863
 AL         13.0    57.6801063232       23.7878707334       42.7342634863
 AL         13.0    57.6801063232       33.3007513556       42.7342634863
 AL         13.0    54.9343344631       28.5443110445       43.8605401750
 AL         13.0    52.1866728769       23.7878707334       34.0736492846
 AL         13.0    52.1866728769       33.3007513556       34.0736492846
 AL         13.0    60.4277679094       28.5443110445       34.0736492846
 AL         13.0    52.1866728769       23.7878707334       39.5292882112
 AL         13.0    52.1866728769       33.3007513556       39.5292882112
 AL         13.0    60.4277679094       28.5443110445       39.5292882112

          INTERNUCLEAR DISTANCES (ANGS.)
          ------------------------------

                    FE             O              O              O         

  1  FE              0.0000000      2.0888126 *    2.0886237 *    2.0894389 *  
  2  O               2.0888126 *    0.0000000      2.6155476 *    2.6170000 *  
  3  O               2.0886237 *    2.6155476 *    0.0000000      2.6160478 *  
  4  O               2.0894389 *    2.6170000 *    2.6160478 *    0.0000000    
  5  O               1.9602890 *    2.7591450 *    2.8934944 *    3.9974279    
  6  O               1.9614456 *    3.9977455      2.7596750 *    2.8938469 *  
  7  O               1.9608835 *    2.8942781 *    3.9969965      2.7595831 *  
  8  AL              3.3655705      5.3093852      4.5369670      3.6023534    
  9  AL              3.3649538      3.6026365      5.3086024      4.5372469    
 10  AL              3.3649538      4.5365549      3.6025795      5.3092324    
 11  AL              3.7012606      4.3652439      3.3837631      1.9602890 *  
 12  AL              3.7006998      1.9608093 *    4.3642917      3.3841383    
 13  AL              3.7006998      3.3832105      1.9607045 *    4.3650581    
 14  AL              2.8870000 *    2.0895035 *    2.0893147 *    2.0901297 *  
 15  AL              3.7017116      4.9682505      5.6816432      4.1322989    
 16  AL              3.7017116      5.6819762      4.1326009      4.9676185    
 17  AL              3.7018797      4.1324389      4.9679950      5.6828607    
 18  AL              2.9670575 *    3.3841383      4.3646247      1.9608093 *  
 19  AL              2.9670575 *    4.3650581      1.9614456 *    3.3832105    
 20  AL              2.9672671 *    1.9611043 *    3.3837631      4.3662095    

                    O              O              O              AL        

  1  FE              1.9602890 *    1.9614456 *    1.9608835 *    3.3655705    
  2  O               2.7591450 *    3.9977455      2.8942781 *    5.3093852    
  3  O               2.8934944 *    2.7596750 *    3.9969965      4.5369670    
  4  O               3.9974279      2.8938469 *    2.7595831 *    3.6023534    
  5  O               0.0000000      3.0623860      3.0621602      4.6458749    
  6  O               3.0623860      0.0000000      3.0623888      1.9607045 *  
  7  O               3.0621602      3.0623888      0.0000000      3.3833222    
  8  AL              4.6458749      1.9607045 *    3.3833222      0.0000000    
  9  AL              3.3832105      4.6463242      1.9611043 *    5.0343708    
 10  AL              1.9608093 *    3.3837631      4.6460463      5.0343708    
 11  AL              5.5424156      3.6025795      4.5366382      3.9870000    
 12  AL              4.5365549      5.5427923      3.6027971      6.4219201    
 13  AL              3.6026365      4.5369670      5.5425592      6.4219201    
 14  AL              4.1320520      4.1326009      4.1323341      5.4272035    
 15  AL              4.7016831      3.8083739      2.0895035 *    2.9667683 *  
 16  AL              3.8084753      2.0893147 *    4.7016849      2.9667683 *  
 17  AL              2.0901297 *    4.7029253      3.8092767      5.8444685    
 18  AL              4.7013761      3.8079949      2.0888126 *    3.7006998    
 19  AL              3.8080962      2.0886237 *    4.7013779      3.7006998    
 20  AL              2.0894389 *    4.7026183      3.8088977      6.2491021    

                    AL             AL             AL             AL        

  1  FE              3.3649538      3.3649538      3.7012606      3.7006998    
  2  O               3.6026365      4.5365549      4.3652439      1.9608093 *  
  3  O               5.3086024      3.6025795      3.3837631      4.3642917    
  4  O               4.5372469      5.3092324      1.9602890 *    3.3841383    
  5  O               3.3832105      1.9608093 *    5.5424156      4.5365549    
  6  O               4.6463242      3.3837631      3.6025795      5.5427923    
  7  O               1.9611043 *    4.6460463      4.5366382      3.6027971    
  8  AL              5.0343708      5.0343708      3.9870000      6.4219201    
  9  AL              0.0000000      5.0340000      6.4219201      3.9870000    
 10  AL              5.0340000      0.0000000      6.4219201      6.4216295    
 11  AL              6.4219201      6.4219201      0.0000000      5.0343708    
 12  AL              3.9870000      6.4216295      5.0343708      0.0000000    
 13  AL              6.4216295      3.9870000      5.0343708      5.0340000    
 14  AL              5.4268211      5.4268211      2.9674678 *    2.9667683 *  
 15  AL              2.9674678 *    5.8435452      5.4268211      5.4272035    
 16  AL              5.8435452      2.9674678 *    5.4268211      7.4024114    
 17  AL              2.9672582 *    2.9672582 *    7.4031402      5.4270889    
 18  AL              3.7012606      6.2482386      3.3649538      3.3655705    
 19  AL              6.2482386      3.7012606      3.3649538      6.0554291    
 20  AL              3.7010925      3.7010925      6.0563200      3.3653857    

                    AL             AL             AL             AL        

  1  FE              3.7006998      2.8870000 *    3.7017116      3.7017116    
  2  O               3.3832105      2.0895035 *    4.9682505      5.6819762    
  3  O               1.9607045 *    2.0893147 *    5.6816432      4.1326009    
  4  O               4.3650581      2.0901297 *    4.1322989      4.9676185    
  5  O               3.6026365      4.1320520      4.7016831      3.8084753    
  6  O               4.5369670      4.1326009      3.8083739      2.0893147 *  
  7  O               5.5425592      4.1323341      2.0895035 *    4.7016849    
  8  AL              6.4219201      5.4272035      2.9667683 *    2.9667683 *  
  9  AL              6.4216295      5.4268211      2.9674678 *    5.8435452    
 10  AL              3.9870000      5.4268211      5.8435452      2.9674678 *  
 11  AL              5.0343708      2.9674678 *    5.4268211      5.4268211    
 12  AL              5.0340000      2.9667683 *    5.4272035      7.4024114    
 13  AL              0.0000000      2.9667683 *    7.4024114      5.4272035    
 14  AL              2.9667683 *    0.0000000      5.9389768      5.9389768    
 15  AL              7.4024114      5.9389768      0.0000000      5.0340000    
 16  AL              5.4272035      5.9389768      5.0340000      0.0000000    
 17  AL              5.4270889      5.9390816      5.0352368      5.0352368    
 18  AL              6.0554291      3.7017116      2.8870000 *    5.8030962    
 19  AL              3.3655705      3.7017116      5.8030962      2.8870000 *  
 20  AL              3.3653857      3.7018797      5.8041691      5.8041691    

                    AL             AL             AL             AL        

  1  FE              3.7018797      2.9670575 *    2.9670575 *    2.9672671 *  
  2  O               4.1324389      3.3841383      4.3650581      1.9611043 *  
  3  O               4.9679950      4.3646247      1.9614456 *    3.3837631    
  4  O               5.6828607      1.9608093 *    3.3832105      4.3662095    
  5  O               2.0901297 *    4.7013761      3.8080962      2.0894389 *  
  6  O               4.7029253      3.8079949      2.0886237 *    4.7026183    
  7  O               3.8092767      2.0888126 *    4.7013779      3.8088977    
  8  AL              5.8444685      3.7006998      3.7006998      6.2491021    
  9  AL              2.9672582 *    3.7012606      6.2482386      3.7010925    
 10  AL              2.9672582 *    6.2482386      3.7012606      3.7010925    
 11  AL              7.4031402      3.3649538      3.3649538      6.0563200    
 12  AL              5.4270889      3.3655705      6.0554291      3.3653857    
 13  AL              5.4270889      6.0554291      3.3655705      3.3653857    
 14  AL              5.9390816      3.7017116      3.7017116      3.7018797    
 15  AL              5.0352368      2.8870000 *    5.8030962      5.8041691    
 16  AL              5.0352368      5.8030962      2.8870000 *    5.8041691    
 17  AL              0.0000000      5.8041691      5.8041691      2.8870000 *  
 18  AL              5.8041691      0.0000000      5.0340000      5.0352368    
 19  AL              5.8041691      5.0340000      0.0000000      5.0352368    
 20  AL              2.8870000 *    5.0352368      5.0352368      0.0000000    

  * ... LESS THAN  3.000


     ATOMIC BASIS SET
     ----------------
 THE CONTRACTED PRIMITIVE FUNCTIONS HAVE BEEN UNNORMALIZED
 THE CONTRACTED BASIS FUNCTIONS ARE NOW NORMALIZED TO UNITY

  SHELL TYPE  PRIMITIVE        EXPONENT          CONTRACTION COEFFICIENT(S)

 FE        

      1   S       1             6.4220000   -0.392788225868
      1   S       2             1.8260000    0.771264350793
      1   S       3             0.7135000    0.492022832403

      2   S       4             6.4220000    0.178687707070
      2   S       5             1.8260000   -0.419403216594
      2   S       6             0.7135000   -0.456818518074
      2   S       7             0.1021000    1.103504843661

      3   S       8             0.0363000    1.000000000000

      4   P       9            19.4800000   -0.047028200021
      4   P      10             2.3890000    0.624884100275
      4   P      11             0.7795000    0.472254200208

      5   P      12             0.0740000    1.000000000000

      6   P      13             0.0220000    1.000000000000

      7   D      14            37.0800000    0.032900002682
      7   D      15            10.1000000    0.178741814570
      7   D      16             3.2200000    0.448765736581
      7   D      17             0.9628000    0.587636147901

      8   D      18             0.2262000    1.000000000000

 O         

      9   S      19          5484.6717000    0.001831099806
      9   S      20           825.2349500    0.013950098518
      9   S      21           188.0469600    0.068445092731
      9   S      22            52.9645000    0.232714275284
      9   S      23            16.8975700    0.470192950063
      9   S      24             5.7996353    0.358520861923

     10   L      25            15.5396160   -0.110777503825    0.070874299543
     10   L      26             3.5999336   -0.148026305111    0.339752797811
     10   L      27             1.0137618    1.130767039045    0.727158595314

     11   L      28             0.2700058    1.000000000000    1.000000000000

     12   D      29             0.8000000    1.000000000000

 O         

     13   S      30          5484.6717000    0.001831099806
     13   S      31           825.2349500    0.013950098518
     13   S      32           188.0469600    0.068445092731
     13   S      33            52.9645000    0.232714275284
     13   S      34            16.8975700    0.470192950063
     13   S      35             5.7996353    0.358520861923

     14   L      36            15.5396160   -0.110777503825    0.070874299543
     14   L      37             3.5999336   -0.148026305111    0.339752797811
     14   L      38             1.0137618    1.130767039045    0.727158595314

     15   L      39             0.2700058    1.000000000000    1.000000000000

     16   D      40             0.8000000    1.000000000000

 O         

     17   S      41          5484.6717000    0.001831099806
     17   S      42           825.2349500    0.013950098518
     17   S      43           188.0469600    0.068445092731
     17   S      44            52.9645000    0.232714275284
     17   S      45            16.8975700    0.470192950063
     17   S      46             5.7996353    0.358520861923

     18   L      47            15.5396160   -0.110777503825    0.070874299543
     18   L      48             3.5999336   -0.148026305111    0.339752797811
     18   L      49             1.0137618    1.130767039045    0.727158595314

     19   L      50             0.2700058    1.000000000000    1.000000000000

     20   D      51             0.8000000    1.000000000000

 O         

     21   S      52          5484.6717000    0.001831099806
     21   S      53           825.2349500    0.013950098518
     21   S      54           188.0469600    0.068445092731
     21   S      55            52.9645000    0.232714275284
     21   S      56            16.8975700    0.470192950063
     21   S      57             5.7996353    0.358520861923

     22   L      58            15.5396160   -0.110777503825    0.070874299543
     22   L      59             3.5999336   -0.148026305111    0.339752797811
     22   L      60             1.0137618    1.130767039045    0.727158595314

     23   L      61             0.2700058    1.000000000000    1.000000000000

     24   D      62             0.8000000    1.000000000000

 O         

     25   S      63          5484.6717000    0.001831099806
     25   S      64           825.2349500    0.013950098518
     25   S      65           188.0469600    0.068445092731
     25   S      66            52.9645000    0.232714275284
     25   S      67            16.8975700    0.470192950063
     25   S      68             5.7996353    0.358520861923

     26   L      69            15.5396160   -0.110777503825    0.070874299543
     26   L      70             3.5999336   -0.148026305111    0.339752797811
     26   L      71             1.0137618    1.130767039045    0.727158595314

     27   L      72             0.2700058    1.000000000000    1.000000000000

     28   D      73             0.8000000    1.000000000000

 O         

     29   S      74          5484.6717000    0.001831099806
     29   S      75           825.2349500    0.013950098518
     29   S      76           188.0469600    0.068445092731
     29   S      77            52.9645000    0.232714275284
     29   S      78            16.8975700    0.470192950063
     29   S      79             5.7996353    0.358520861923

     30   L      80            15.5396160   -0.110777503825    0.070874299543
     30   L      81             3.5999336   -0.148026305111    0.339752797811
     30   L      82             1.0137618    1.130767039045    0.727158595314

     31   L      83             0.2700058    1.000000000000    1.000000000000

     32   D      84             0.8000000    1.000000000000

 AL        

 AL        

 AL        

 AL        

 AL        

 AL        

 AL        

 AL        

 AL        

 AL        

 AL        

 AL        

 AL        

 TOTAL NUMBER OF BASIS SET SHELLS             =   32
 NUMBER OF CARTESIAN GAUSSIAN BASIS FUNCTIONS =  114
 NOTE: THIS RUN WILL RESTRICT THE MO VARIATION SPACE TO SPHERICAL HARMONICS.
 THE NUMBER OF ORBITALS KEPT IN THE VARIATIONAL SPACE WILL BE PRINTED LATER.
 NUMBER OF ELECTRONS                          =  213
 CHARGE OF MOLECULE                           =   30
 SPIN MULTIPLICITY                            =    6
 NUMBER OF OCCUPIED ORBITALS (ALPHA)          =  109
 NUMBER OF OCCUPIED ORBITALS (BETA )          =  104
 TOTAL NUMBER OF ATOMS                        =   20
 THE NUCLEAR REPULSION ENERGY IS     4020.1485301863
 NOTE THIS RUN IS USING CORE POTENTIALS, AND THE NUMBER OF ELECTRONS,
 OCCUPIED ORBITALS, AND NUCLEAR REPULSION ENERGY WILL BE ADJUSTED BELOW
 AFTER REMOVAL OF THE CORE CHARGES.

     $CONTRL OPTIONS
     ---------------
 SCFTYP=UHF          RUNTYP=ENERGY       EXETYP=RUN     
 MPLEVL=       0     CITYP =NONE         CCTYP =NONE         VBTYP =NONE    
 MULT  =       6     ICHARG=      30     NZVAR =       0     COORD =UNIQUE  
 PP    =READ         RELWFN=NONE         LOCAL =NONE         NUMGRD=       F
 ISPHER=       1     NOSYM =       0     MAXIT =     200     UNITS =ANGS    
 PLTORB=       F     MOLPLT=       F     AIMPAC=       F     FRIEND=        
 NPRINT=       7     IREST =       0     GEOM  =INPUT   
 NORMF =       0     NORMP =       0     ITOL  =      20     ICUT  =       9
 INTTYP=BEST         GRDTYP=BEST         QMTTOL= 1.0E-06

     $SYSTEM OPTIONS
     ---------------
  REPLICATED MEMORY=     1000000 WORDS (ON EVERY NODE).
 DISTRIBUTED MEMDDI=           0 MILLION WORDS IN AGGREGATE,
 MEMDDI DISTRIBUTED OVER   8 PROCESSORS IS           0 WORDS/PROCESSOR.
 TOTAL MEMORY REQUESTED ON EACH PROCESSOR=     1000000 WORDS.
 TIMLIM=      525600.00 MINUTES, OR   365.00 DAYS.
 PARALL= T  BALTYP=  NXTVAL  KDIAG=    0  COREFL= F

          --------------
          ECP POTENTIALS
          --------------

 PARAMETERS FOR "FE-ECP  " ON ATOM    1 WITH ZCORE  10 AND LMAX  2 ARE
 FOR L= 2      COEFF    N           ZETA
    1      -10.00000    1      392.61498
    2      -63.26675    2       71.17570
    3      -10.96133    2       17.73203
 FOR L= 0      COEFF    N           ZETA
    1        3.00000    0      126.05719
    2       18.17291    1      138.12643
    3      339.12312    2       54.20989
    4      317.10680    2        9.28380
    5     -207.34216    2        8.62891
 FOR L= 1      COEFF    N           ZETA
    1        5.00000    0       83.17595
    2        5.95359    1      106.05599
    3      294.26655    2       42.82849
    4      154.42446    2        8.77018
    5      -95.31642    2        8.03978

 PARAMETERS FOR "AL-ECP  " ON ATOM    8 WITH ZCORE  10 AND LMAX  2 ARE
 FOR L= 2      COEFF    N           ZETA
    1      -10.00000    1      304.72919
    2      -63.80798    2       61.52998
    3      -22.89722    2       13.92590
    4       -8.00632    2        4.14636
    5       -0.88293    2        1.37154
 FOR L= 0      COEFF    N           ZETA
    1        3.00000    0      467.84378
    2       50.97057    1       79.39922
    3      143.87165    2       25.40360
    4       48.00558    2        6.99547
    5       14.01142    2        1.78601
 FOR L= 1      COEFF    N           ZETA
    1        5.00000    0      776.27172
    2       93.05954    1      118.49923
    3      266.76863    2       34.41073
    4       70.07258    2        8.78596
    5       17.22908    2        2.34062
    6        0.71053    2        0.73984

 PARAMETERS FOR "AL-ECP  " ON ATOM    9 ARE THE SAME AS ATOM   8

 PARAMETERS FOR "AL-ECP  " ON ATOM   10 ARE THE SAME AS ATOM   8

 PARAMETERS FOR "AL-ECP  " ON ATOM   11 ARE THE SAME AS ATOM   8

 PARAMETERS FOR "AL-ECP  " ON ATOM   12 ARE THE SAME AS ATOM   8

 PARAMETERS FOR "AL-ECP  " ON ATOM   13 ARE THE SAME AS ATOM   8

 PARAMETERS FOR "AL-ECP  " ON ATOM   14 ARE THE SAME AS ATOM   8

 PARAMETERS FOR "AL-ECP  " ON ATOM   15 ARE THE SAME AS ATOM   8

 PARAMETERS FOR "AL-ECP  " ON ATOM   16 ARE THE SAME AS ATOM   8

 PARAMETERS FOR "AL-ECP  " ON ATOM   17 ARE THE SAME AS ATOM   8

 PARAMETERS FOR "AL-ECP  " ON ATOM   18 ARE THE SAME AS ATOM   8

 PARAMETERS FOR "AL-ECP  " ON ATOM   19 ARE THE SAME AS ATOM   8

 PARAMETERS FOR "AL-ECP  " ON ATOM   20 ARE THE SAME AS ATOM   8

 THE ECP RUN REMOVES  140 CORE ELECTRONS, AND THE SAME NUMBER OF PROTONS.
 NUMBER OF ELECTRONS KEPT IN THE CALCULATION IS =   73
 NUMBER OF OCCUPIED ORBITALS (ALPHA) KEPT IS    =   39
 NUMBER OF OCCUPIED ORBITALS (BETA ) KEPT IS    =   34
 THE ADJUSTED NUCLEAR REPULSION ENERGY=      845.1289621274
          ECP ANGULAR INTS.........     0.00 SECONDS

          ----------------
          PROPERTIES INPUT
          ----------------

     MOMENTS            FIELD           POTENTIAL          DENSITY
 IEMOM =       1   IEFLD =       0   IEPOT =       0   IEDEN =       0
 WHERE =COMASS     WHERE =NUCLEI     WHERE =NUCLEI     WHERE =NUCLEI  
 OUTPUT=BOTH       OUTPUT=BOTH       OUTPUT=BOTH       OUTPUT=BOTH    
 IEMINT=       0   IEFINT=       0                     IEDINT=       0
                                                       MORB  =       0
          EXTRAPOLATION IN EFFECT
          LEVEL SHIFTING IN EFFECT
          DIIS IN EFFECT
 ORBITAL PRINTING OPTION: NPREO=   1 114   2   1

     -------------------------------
     INTEGRAL TRANSFORMATION OPTIONS
     -------------------------------
     NWORD  =       0     CUTOFF = 1.0E-09
     MPTRAN =       0     DIRTRF =       T
     AOINTS =DUP     

          ----------------------
          INTEGRAL INPUT OPTIONS
          ----------------------
 NOPK  =       1 NORDER=       0 SCHWRZ=       T

     ------------------------------------------
     THE POINT GROUP IS C1 , NAXIS= 0, ORDER= 1
     ------------------------------------------

 -- VARIATIONAL SPACE WILL BE RESTRICTED TO PURE SPHERICAL HARMONICS ONLY --
 AFTER EXCLUDING CONTAMINANT COMBINATIONS FROM THE CARTESIAN GAUSSIAN BASIS
 SET, THE NUMBER OF SPHERICAL HARMONICS KEPT IN THE VARIATION SPACE IS  106

     DIMENSIONS OF THE SYMMETRY SUBSPACES ARE
 A   =  106

 ..... DONE SETTING UP THE RUN .....
 ON NODE 0, STEP CPU TIME =     0.03 TOTAL CPU TIME =        0.0 (    0.0 MIN)
 TOTAL WALL CLOCK TIME=        0.0 SECONDS, CPU UTILIZATION IS 100.00%

          ********************
          1 ELECTRON INTEGRALS
          ********************
 TIME TO DO ORDINARY INTEGRALS=      0.00
 TIME TO DO      ECP INTEGRALS=      0.07
 ...... END OF ONE-ELECTRON INTEGRALS ......
 ON NODE 0, STEP CPU TIME =     0.07 TOTAL CPU TIME =        0.1 (    0.0 MIN)
 TOTAL WALL CLOCK TIME=        0.0 SECONDS, CPU UTILIZATION IS 100.00%

          -------------
          GUESS OPTIONS
          -------------
          GUESS =HUCKEL            NORB  =       0          NORDER=       0
          MIX   =       F          PRTMO =       F          PUNMO =       F
          TOLZ  = 1.0E-08          TOLE  = 1.0E-05
          SYMDEN=       F          PURIFY=       F

 INITIAL GUESS ORBITALS GENERATED BY HUCKEL   ROUTINE.
 HUCKEL GUESS REQUIRES    142553 WORDS.

 STATISTICS FOR GENERATION OF SYMMETRY ORBITAL -Q- MATRIX
 NUMBER OF CARTESIAN ATOMIC ORBITALS=        114
 NUMBER OF SPHERICAL CONTAMINANTS DROPPED=     8
 NUMBER OF LINEARLY DEPENDENT MOS DROPPED=     0
 TOTAL NUMBER OF MOS IN VARIATION SPACE=     106

 SYMMETRIES FOR INITIAL GUESS ORBITALS FOLLOW.  ALPHA SET(S).
    39 ORBITALS ARE OCCUPIED (   10 CORE ORBITALS).
    11=A       12=A       13=A       14=A       15=A       16=A       17=A   
    18=A       19=A       20=A       21=A       22=A       23=A       24=A   
    25=A       26=A       27=A       28=A       29=A       30=A       31=A   
    32=A       33=A       34=A       35=A       36=A       37=A       38=A   
    39=A       40=A       41=A       42=A       43=A       44=A       45=A   
    46=A       47=A       48=A       49=A   

 SYMMETRIES FOR INITIAL GUESS ORBITALS FOLLOW.   BETA SET(S).
    34 ORBITALS ARE OCCUPIED (   10 CORE ORBITALS).
    11=A       12=A       13=A       14=A       15=A       16=A       17=A   
    18=A       19=A       20=A       21=A       22=A       23=A       24=A   
    25=A       26=A       27=A       28=A       29=A       30=A       31=A   
    32=A       33=A       34=A       35=A       36=A       37=A       38=A   
    39=A       40=A       41=A       42=A       43=A       44=A   
 ...... END OF INITIAL ORBITAL SELECTION ......
 ON NODE 0, STEP CPU TIME =     0.07 TOTAL CPU TIME =        0.2 (    0.0 MIN)
 TOTAL WALL CLOCK TIME=        0.0 SECONDS, CPU UTILIZATION IS 100.00%

                    ----------------------
                    AO INTEGRAL TECHNOLOGY
                    ----------------------
     S,P,L SHELL ROTATED AXIS INTEGRALS, REPROGRAMMED BY
        KAZUYA ISHIMURA (IMS) AND JOSE SIERRA (SYNSTAR).
     S,P,D,L SHELL ROTATED AXIS INTEGRALS PROGRAMMED BY
        KAZUYA ISHIMURA (INSTITUTE FOR MOLECULAR SCIENCE).
     S,P,D,F,G SHELL TO TOTAL QUARTET ANGULAR MOMENTUM SUM 5,
        ERIC PROGRAM BY GRAHAM FLETCHER (ELORET AND NASA ADVANCED
        SUPERCOMPUTING DIVISION, AMES RESEARCH CENTER).
     S,P,D,F,G,L SHELL GENERAL RYS QUADRATURE PROGRAMMED BY
        MICHEL DUPUIS (PACIFIC NORTHWEST NATIONAL LABORATORY).

          --------------------
          2 ELECTRON INTEGRALS
          --------------------

 DIRECT SCF METHOD SKIPS INTEGRAL STORAGE ON DISK.
 DIRECT TRANSFORMATION SKIPS AO INTEGRAL STORAGE ON DISK.
  ...... END OF TWO-ELECTRON INTEGRALS .....
 ON NODE 0, STEP CPU TIME =     0.01 TOTAL CPU TIME =        0.2 (    0.0 MIN)
 TOTAL WALL CLOCK TIME=        0.0 SECONDS, CPU UTILIZATION IS 100.00%

          ---------------------------
                  UHF SCF CALCULATION
          ---------------------------

     NUCLEAR ENERGY =       845.1289621274
     MAXIT =200     NPUNCH=  2     MULT=  6
     EXTRAP=T  DAMP=F  SHIFT=T  RSTRCT=F  DIIS=T  SOSCF=F
     DENSITY MATRIX CONV=  2.00E-05
     MEMORY REQUIRED FOR UHF/ROHF STEP=    198876 WORDS.

 DIRECT SCF CALCULATION, SCHWRZ=T   FDIFF=T
 SCHWARZ INEQUALITY OVERHEAD:      6480 INTEGRALS, T=        0.00

                                                                                                                NONZERO     BLOCKS
 ITER EX      TOTAL ENERGY        E CHANGE  DENSITY CHANGE    DIIS ERROR      VIR. SHIFT       DAMPING        INTEGRALS    SKIPPED
   1  0     -519.0628967585  -519.0628967585   5.348869736   0.859295519     0.000000000     1.000000000       16535458      34098
   2  1     -522.0460643392    -2.9831675806   1.057953890   1.273648756     2.000000000     1.000000000       16537737      34174
   3  2     -526.3598430076    -4.3137786684   2.390775245   0.870347674     2.000000000     0.000000000       16461823      38885
   4  3     -530.2784594467    -3.9186164391   1.555301689   1.361060395     2.000000000     0.000000000       16503576      36802
          * * *   INITIATING DIIS PROCEDURE   * * *
   5  4     -534.7813503926    -4.5028909460   0.592242681   0.288675534     0.000000000     1.000000000       16482681      37589
   6  5     -535.3356076570    -0.5542572644   0.207107649   0.255661513     0.000000000     1.000000000       16439034      39168
   7  6     -535.6666051020    -0.3309974450   0.149109845   0.045689787     0.000000000     1.000000000       16309509      41197
   8  7     -535.7270644705    -0.0604593686   0.036630839   0.022208801     0.000000000     1.000000000       16189176      42881
   9  8     -535.7370639616    -0.0099994910   0.022967693   0.010187193     0.000000000     1.000000000       15973717      44827
  10  9     -535.7402559898    -0.0031920282   0.009563920   0.005471310     0.000000000     1.000000000       15878852      45631
  11 10     -535.7408911958    -0.0006352060   0.005274053   0.002353433     0.000000000     1.000000000       15655879      47590
  12 11     -535.7409965044    -0.0001053086   0.001261742   0.000544020     0.000000000     1.000000000       15417022      49424
  13 12     -535.7410025836    -0.0000060792   0.000589134   0.000233477     0.000000000     1.000000000       14686947      54366
  14 13     -535.7410040295    -0.0000014459   0.000146462   0.000086786     0.000000000     1.000000000       14346311      56281
  15 14     -535.7410042043    -0.0000001747   0.000082529   0.000030291     0.000000000     1.000000000       13479989      60744
  16 15     -535.7410042301    -0.0000000259   0.000016487   0.000007242     0.000000000     1.000000000       12762436      64293
  17 16     -535.7410042318    -0.0000000017   0.000006250   0.000003102     0.000000000     1.000000000       11265860      72129

          -----------------
          DENSITY CONVERGED
          -----------------

 FINAL UHF ENERGY IS     -535.7410042318 AFTER  17 ITERATIONS

          --------------------
          SPIN SZ   =    2.500
          S-SQUARED =    8.759
          --------------------

  ----- ALPHA SET ----- 

          ------------
          EIGENVECTORS
          ------------

                      1          2          3          4          5
                  -24.6815   -24.6815   -24.6815   -24.5598   -24.5597
                     A          A          A          A          A   
    1  FE 1  S    0.001252   0.001201   0.000799   0.000756   0.000831
    2  FE 1  S    0.002492   0.002392   0.001593   0.001767   0.001943
    3  FE 1  S    0.000418   0.000402   0.000269   0.000745   0.000818
    4  FE 1  X    0.000077  -0.000029  -0.000076  -0.000014  -0.000003
    5  FE 1  Y    0.000036  -0.000082   0.000067   0.000011  -0.000017
    6  FE 1  Z   -0.000080  -0.000076  -0.000051  -0.000018  -0.000020
    7  FE 1  X    0.002576  -0.001033  -0.002473   0.001677   0.000121
    8  FE 1  Y    0.001123  -0.002698   0.002293  -0.001008   0.001870
    9  FE 1  Z   -0.001110  -0.001065  -0.000710   0.002046   0.002247
   10  FE 1  X   -0.000382   0.000154   0.000365  -0.000201  -0.000007
   11  FE 1  Y   -0.000165   0.000399  -0.000340   0.000112  -0.000220
   12  FE 1  Z    0.000151   0.000145   0.000096  -0.000264  -0.000290
   13  FE 1 XX   -0.000018   0.000024  -0.000017  -0.000025   0.000077
   14  FE 1 YY    0.000013  -0.000029   0.000014   0.000045  -0.000056
   15  FE 1 ZZ    0.000005   0.000005   0.000003  -0.000020  -0.000022
   16  FE 1 XY   -0.000024   0.000004   0.000032   0.000070   0.000004
   17  FE 1 XZ    0.000018  -0.000006  -0.000020  -0.000107  -0.000018
   18  FE 1 YZ    0.000010  -0.000020   0.000015   0.000077  -0.000125
   19  FE 1 XX    0.000612  -0.000661   0.000542   0.000329  -0.000967
   20  FE 1 YY   -0.000334   0.000928  -0.000364  -0.000535   0.000740
   21  FE 1 ZZ   -0.000277  -0.000267  -0.000178   0.000206   0.000226
   22  FE 1 XY    0.000713  -0.000112  -0.000946  -0.000899  -0.000028
   23  FE 1 XZ   -0.000801   0.000308   0.000790   0.001391   0.000178
   24  FE 1 YZ   -0.000366   0.000853  -0.000706  -0.000928   0.001593
   25  O  2  S    0.000016   0.000030  -0.000020   0.994204   0.052609
   26  O  2  S    0.000187   0.000159  -0.000062   0.021928   0.001286
   27  O  2  X    0.000048  -0.000036  -0.000065  -0.000362   0.000013
   28  O  2  Y    0.000013  -0.000068   0.000059   0.000116  -0.000025
   29  O  2  Z   -0.000018  -0.000044  -0.000020  -0.000477   0.000007
   30  O  2  S   -0.000611  -0.000402   0.000273  -0.007925  -0.000959
   31  O  2  X   -0.000223   0.000208   0.000367   0.001210   0.000040
   32  O  2  Y   -0.000164   0.000330  -0.000304  -0.000637  -0.000160
   33  O  2  Z    0.000232   0.000252   0.000231   0.001411  -0.000117
   34  O  2 XX    0.000059  -0.000011  -0.000005  -0.000003  -0.000022
   35  O  2 YY   -0.000021   0.000048   0.000075   0.000103  -0.000022
   36  O  2 ZZ   -0.000037  -0.000037  -0.000070  -0.000100   0.000045
   37  O  2 XY   -0.000004  -0.000028   0.000077   0.000097   0.000000
   38  O  2 XZ    0.000020  -0.000052  -0.000161  -0.000213   0.000042
   39  O  2 YZ    0.000019  -0.000033   0.000098   0.000122   0.000030
   40  O  3  S    0.000035  -0.000012   0.000015  -0.053251   0.993846
   41  O  3  S    0.000192   0.000002   0.000166  -0.001052   0.021932
   42  O  3  X    0.000073  -0.000020  -0.000042  -0.000010   0.000080
   43  O  3  Y    0.000019  -0.000073   0.000053   0.000065  -0.000367
   44  O  3  Z   -0.000043  -0.000028  -0.000005   0.000059  -0.000474
   45  O  3  S   -0.000520   0.000069  -0.000579  -0.000105  -0.007974
   46  O  3  X   -0.000357   0.000105   0.000290  -0.000125  -0.000060
   47  O  3  Y   -0.000063   0.000426  -0.000220  -0.000049   0.001369
   48  O  3  Z    0.000250   0.000305   0.000124  -0.000275   0.001392
   49  O  3 XX   -0.000003   0.000108  -0.000033  -0.000041   0.000146
   50  O  3 YY    0.000036  -0.000028   0.000046  -0.000013  -0.000051
   51  O  3 ZZ   -0.000033  -0.000080  -0.000013   0.000054  -0.000096
   52  O  3 XY    0.000037  -0.000004  -0.000044  -0.000003   0.000005
   53  O  3 XZ    0.000050  -0.000006  -0.000034   0.000046   0.000003
   54  O  3 YZ   -0.000002  -0.000182   0.000057   0.000054  -0.000241
   55  O  4  S   -0.000009   0.000022   0.000032  -0.018878  -0.033753
   56  O  4  S    0.000007   0.000209   0.000143  -0.000294  -0.000612
   57  O  4  X    0.000068  -0.000031  -0.000058  -0.000047  -0.000049
   58  O  4  Y    0.000035  -0.000045   0.000062  -0.000016  -0.000037
   59  O  4  Z   -0.000033  -0.000019  -0.000035   0.000041   0.000052
   60  O  4  S    0.000073  -0.000684  -0.000372  -0.000377  -0.000302
   61  O  4  X   -0.000385   0.000064   0.000285  -0.000077   0.000075
   62  O  4  Y   -0.000207   0.000265  -0.000329   0.000100  -0.000092
   63  O  4  Z    0.000318   0.000211   0.000157  -0.000213  -0.000262
   64  O  4 XX    0.000011   0.000007   0.000053  -0.000022  -0.000024
   65  O  4 YY    0.000070   0.000021  -0.000038  -0.000029  -0.000032
   66  O  4 ZZ   -0.000081  -0.000028  -0.000014   0.000051   0.000056
   67  O  4 XY   -0.000073   0.000053  -0.000002   0.000007   0.000014
   68  O  4 XZ    0.000158  -0.000022  -0.000042  -0.000009  -0.000067
   69  O  4 YZ    0.000098  -0.000036   0.000042  -0.000060   0.000011
   70  O  5  S    0.990942  -0.088686  -0.042819   0.000003  -0.000023
   71  O  5  S    0.021782  -0.001852  -0.000868   0.000137   0.000168
   72  O  5  X   -0.000214  -0.000025  -0.000092   0.000036  -0.000011
   73  O  5  Y   -0.000266  -0.000083   0.000099  -0.000015   0.000053
   74  O  5  Z   -0.000031  -0.000032  -0.000020   0.000039   0.000079
   75  O  5  S   -0.008032   0.000675   0.000285  -0.000330  -0.000286
   76  O  5  X    0.001381  -0.000048   0.000278  -0.000302  -0.000092
   77  O  5  Y    0.000710   0.000307  -0.000393   0.000124  -0.000349
   78  O  5  Z   -0.000680   0.000248   0.000142  -0.000267  -0.000335
   79  O  5 XX   -0.000112   0.000017  -0.000033   0.000087   0.000046
   80  O  5 YY    0.000055  -0.000030   0.000024  -0.000034   0.000015
   81  O  5 ZZ    0.000057   0.000013   0.000009  -0.000053  -0.000061
   82  O  5 XY   -0.000097  -0.000016   0.000029   0.000018   0.000071
   83  O  5 XZ    0.000133  -0.000004  -0.000011  -0.000001   0.000034
   84  O  5 YZ    0.000060  -0.000018   0.000017   0.000041  -0.000041
   85  O  6  S    0.060180   0.202527   0.973153   0.000025   0.000005
   86  O  6  S    0.001409   0.004531   0.021356   0.000036   0.000143
   87  O  6  X    0.000136   0.000055   0.000318   0.000032  -0.000003
   88  O  6  Y    0.000030  -0.000135  -0.000023  -0.000021   0.000037
   89  O  6  Z   -0.000033  -0.000030  -0.000019   0.000036   0.000043
   90  O  6  S   -0.000523  -0.001706  -0.007863  -0.000263  -0.000356
   91  O  6  X   -0.000450  -0.000161  -0.001255  -0.000559   0.000010
   92  O  6  Y   -0.000129   0.000617   0.000735   0.000402  -0.000293
   93  O  6  Z    0.000128  -0.000013  -0.000726  -0.000320  -0.000298
   94  O  6 XX   -0.000042   0.000013  -0.000059  -0.000110   0.000004
   95  O  6 YY    0.000022  -0.000037   0.000009   0.000001   0.000043
   96  O  6 ZZ    0.000020   0.000024   0.000050   0.000109  -0.000046
   97  O  6 XY    0.000002   0.000046   0.000126   0.000214  -0.000055
   98  O  6 XZ    0.000001  -0.000037  -0.000114  -0.000104  -0.000042
   99  O  6 YZ    0.000020   0.000004   0.000085   0.000079  -0.000015
  100  O  7  S    0.077962   0.970971  -0.206890  -0.000023   0.000023
  101  O  7  S    0.001809   0.021339  -0.004471   0.000156   0.000050
  102  O  7  X    0.000093  -0.000149  -0.000072   0.000053   0.000006
  103  O  7  Y    0.000090   0.000314   0.000011  -0.000016   0.000037
  104  O  7  Z   -0.000032  -0.000030  -0.000022   0.000075   0.000043
  105  O  7  S   -0.000704  -0.007863   0.001649  -0.000254  -0.000292
  106  O  7  X   -0.000396   0.000034   0.000402  -0.000272  -0.000083
  107  O  7  Y   -0.000293  -0.001525   0.000109   0.000254  -0.000666
  108  O  7  Z    0.000102  -0.000668   0.000296  -0.000307  -0.000350
  109  O  7 XX   -0.000001   0.000086  -0.000015  -0.000032   0.000132
  110  O  7 YY   -0.000019  -0.000142   0.000012   0.000091  -0.000236
  111  O  7 ZZ    0.000020   0.000055   0.000003  -0.000059   0.000104
  112  O  7 XY   -0.000039  -0.000024   0.000045  -0.000022  -0.000052
  113  O  7 XZ    0.000014  -0.000019  -0.000016  -0.000054  -0.000020
  114  O  7 YZ   -0.000017  -0.000141   0.000031  -0.000004  -0.000131

                      6          7          8          9         10
                  -24.5596    -8.7470    -7.3748    -7.3748    -7.3726
                     A          A          A          A          A   
    1  FE 1  S    0.000859   0.985036   0.000019   0.000018  -0.000883
    2  FE 1  S    0.002009  -0.034499   0.000061   0.000039  -0.012886
    3  FE 1  S    0.000848   0.005773  -0.000001  -0.000003  -0.000593
    4  FE 1  X    0.000017  -0.000001   0.616267   0.789325   0.001672
    5  FE 1  Y    0.000007  -0.000003   0.789324  -0.616264   0.001899
    6  FE 1  Z   -0.000021  -0.004215  -0.002529  -0.000153   1.001315
    7  FE 1  X   -0.001592   0.000008  -0.006605  -0.008913  -0.000029
    8  FE 1  Y   -0.000918  -0.000004  -0.008895   0.006617  -0.000019
    9  FE 1  Z    0.002324  -0.008919   0.000040  -0.000001  -0.016488
   10  FE 1  X    0.000183  -0.000002   0.001265   0.001734   0.000007
   11  FE 1  Y    0.000114   0.000001   0.001729  -0.001270   0.000003
   12  FE 1  Z   -0.000300   0.001989  -0.000009   0.000001   0.003526
   13  FE 1 XX   -0.000022   0.000130   0.000446   0.000211   0.000715
   14  FE 1 YY    0.000045   0.000130  -0.000451  -0.000211   0.000712
   15  FE 1 ZZ   -0.000023  -0.000260   0.000005   0.000000  -0.001427
   16  FE 1 XY   -0.000065   0.000000  -0.000248   0.000517  -0.000001
   17  FE 1 XZ    0.000112  -0.000001  -0.001225  -0.001583  -0.000005
   18  FE 1 YZ    0.000053  -0.000001  -0.001584   0.001224  -0.000005
   19  FE 1 XX    0.000328   0.000194   0.003050  -0.001704   0.001149
   20  FE 1 YY   -0.000562   0.000199  -0.003055   0.001707   0.001152
   21  FE 1 ZZ    0.000234  -0.000393   0.000004  -0.000003  -0.002301
   22  FE 1 XY    0.000820  -0.000003   0.001999   0.003504  -0.000018
   23  FE 1 XZ   -0.001397  -0.000001  -0.004719  -0.005873   0.000015
   24  FE 1 YZ   -0.000722  -0.000005  -0.005888   0.004668  -0.000009
   25  O  2  S    0.020666  -0.000357  -0.000105  -0.000763  -0.000758
   26  O  2  S    0.000586  -0.002941  -0.000069  -0.000582  -0.000871
   27  O  2  X    0.000036   0.000004  -0.000411  -0.001725  -0.001406
   28  O  2  Y   -0.000017   0.000035  -0.000179   0.001047   0.000817
   29  O  2  Z    0.000025  -0.000003  -0.000189  -0.001451  -0.001891
   30  O  2  S   -0.000727   0.010652   0.001102   0.008727   0.009650
   31  O  2  X    0.000110  -0.003597   0.001448  -0.000478  -0.002473
   32  O  2  Y    0.000079   0.001960   0.002598  -0.000254   0.001331
   33  O  2  Z   -0.000182  -0.003460  -0.000500  -0.003633   0.000490
   34  O  2 XX   -0.000020   0.000122  -0.000676  -0.000319   0.000631
   35  O  2 YY   -0.000030  -0.000285   0.000548  -0.000688  -0.000081
   36  O  2 ZZ    0.000050   0.000163   0.000128   0.001007  -0.000550
   37  O  2 XY   -0.000006  -0.000396  -0.000440  -0.000105  -0.000726
   38  O  2 XZ    0.000011   0.000749  -0.000229   0.001100   0.000627
   39  O  2 YZ   -0.000057  -0.000415  -0.000727  -0.000525  -0.000373
   40  O  3  S    0.032722  -0.000358  -0.000606   0.000474  -0.000759
   41  O  3  S    0.000854  -0.002941  -0.000468   0.000351  -0.000871
   42  O  3  X    0.000013  -0.000032  -0.000218  -0.000290  -0.000006
   43  O  3  Y    0.000033  -0.000015  -0.001608   0.001244  -0.001631
   44  O  3  Z    0.000018  -0.000003  -0.001156   0.000895  -0.001895
   45  O  3  S   -0.000831   0.010658   0.006983  -0.005337   0.009667
   46  O  3  X    0.000113   0.000100   0.001885   0.002348   0.000097
   47  O  3  Y    0.000089  -0.004094  -0.000223   0.000184  -0.002809
   48  O  3  Z   -0.000156  -0.003463  -0.002907   0.002245   0.000483
   49  O  3 XX   -0.000027  -0.000480  -0.000541   0.000413  -0.000448
   50  O  3 YY   -0.000022   0.000316  -0.000272   0.000200   0.000997
   51  O  3 ZZ    0.000050   0.000164   0.000812  -0.000613  -0.000549
   52  O  3 XY    0.000000  -0.000005  -0.000531  -0.000655   0.000004
   53  O  3 XZ   -0.000044  -0.000015  -0.000455  -0.000598   0.000006
   54  O  3 YZ    0.000029   0.000856   0.000970  -0.000749   0.000732
   55  O  4  S    0.995058  -0.000357   0.000716   0.000290  -0.000754
   56  O  4  S    0.021963  -0.002944   0.000560   0.000239  -0.000886
   57  O  4  X    0.000277   0.000026  -0.001557  -0.000837   0.001399
   58  O  4  Y    0.000253  -0.000022  -0.001062  -0.000096   0.000801
   59  O  4  Z   -0.000473  -0.000001   0.001351   0.000555  -0.001880
   60  O  4  S   -0.008000   0.010652  -0.008179  -0.003417   0.009650
   61  O  4  X   -0.001164   0.003501  -0.000811   0.001303   0.002406
   62  O  4  Y   -0.000730   0.002135   0.000791  -0.002486   0.001493
   63  O  4  Z    0.001387  -0.003463   0.003418   0.001401   0.000478
   64  O  4 XX    0.000001   0.000114   0.000158   0.000754   0.000641
   65  O  4 YY    0.000093  -0.000278   0.000777  -0.000358  -0.000091
   66  O  4 ZZ   -0.000094   0.000163  -0.000936  -0.000395  -0.000550
   67  O  4 XY   -0.000101   0.000402  -0.000015  -0.000459   0.000722
   68  O  4 XZ    0.000209  -0.000735   0.001137   0.000061  -0.000638
   69  O  4 YZ    0.000120  -0.000441   0.000321   0.000833  -0.000360
   70  O  5  S    0.000024  -0.000420  -0.001158  -0.000593   0.000587
   71  O  5  S    0.000055  -0.001583   0.003741   0.001829  -0.002512
   72  O  5  X   -0.000032  -0.000444  -0.004167  -0.002155   0.002297
   73  O  5  Y   -0.000015  -0.000248  -0.002053  -0.000921   0.001082
   74  O  5  Z    0.000043   0.000058   0.002088   0.001066  -0.001395
   75  O  5  S   -0.000307   0.007303   0.000975   0.000796   0.000326
   76  O  5  X    0.000604  -0.003341   0.004309   0.003510  -0.001352
   77  O  5  Y    0.000274  -0.001483   0.003511  -0.001340  -0.000612
   78  O  5  Z   -0.000360   0.002827  -0.000771  -0.000314   0.004059
   79  O  5 XX   -0.000179   0.000311  -0.000567  -0.001021  -0.000327
   80  O  5 YY    0.000077  -0.000214  -0.000104   0.000681  -0.000267
   81  O  5 ZZ    0.000103  -0.000097   0.000671   0.000340   0.000595
   82  O  5 XY   -0.000158   0.000362  -0.000981   0.000229  -0.000055
   83  O  5 XZ    0.000123  -0.000530   0.000028   0.000300  -0.000781
   84  O  5 YZ    0.000052  -0.000237   0.000297  -0.000530  -0.000359
   85  O  6  S   -0.000021  -0.000419   0.000064   0.001294   0.000589
   86  O  6  S    0.000168  -0.001591  -0.000275  -0.004105  -0.002499
   87  O  6  X   -0.000038   0.000432  -0.000301  -0.004261  -0.002087
   88  O  6  Y   -0.000038  -0.000257   0.000065   0.002924   0.001449
   89  O  6  Z    0.000080   0.000055  -0.000115  -0.002326  -0.001398
   90  O  6  S   -0.000296   0.007306   0.000195  -0.001323   0.000275
   91  O  6  X    0.000317   0.002961   0.002078   0.004747   0.001196
   92  O  6  Y    0.000122  -0.002157   0.002228  -0.003531  -0.000846
   93  O  6  Z   -0.000347   0.002829   0.000096   0.000790   0.004046
   94  O  6 XX    0.000070   0.000190   0.000849   0.000607  -0.000324
   95  O  6 YY   -0.000016  -0.000092  -0.000806   0.000140  -0.000272
   96  O  6 ZZ   -0.000054  -0.000098  -0.000043  -0.000747   0.000595
   97  O  6 XY   -0.000038  -0.000446   0.000277  -0.000979   0.000065
   98  O  6 XZ    0.000014   0.000473   0.000400   0.000068   0.000696
   99  O  6 YZ    0.000054  -0.000342   0.000519  -0.000146  -0.000491
  100  O  7  S    0.000003  -0.000419   0.001089  -0.000704   0.000592
  101  O  7  S    0.000152  -0.001587  -0.003427   0.002307  -0.002516
  102  O  7  X   -0.000027   0.000007  -0.000397   0.000123  -0.000214
  103  O  7  Y   -0.000022   0.000505  -0.004315   0.002839  -0.002547
  104  O  7  Z    0.000047   0.000056  -0.001957   0.001269  -0.001403
  105  O  7  S   -0.000366   0.007304  -0.001210   0.000475   0.000289
  106  O  7  X    0.000236   0.000387   0.002081   0.002227   0.000148
  107  O  7  Y    0.000181   0.003641   0.004766  -0.003542   0.001480
  108  O  7  Z   -0.000309   0.002827   0.000631  -0.000495   0.004052
  109  O  7 XX   -0.000012  -0.000355  -0.000325   0.000401  -0.000239
  110  O  7 YY    0.000064   0.000454   0.000955  -0.000810  -0.000354
  111  O  7 ZZ   -0.000052  -0.000098  -0.000631   0.000409   0.000593
  112  O  7 XY    0.000047   0.000082   0.000706   0.000708  -0.000003
  113  O  7 XZ    0.000031   0.000060   0.000406   0.000516   0.000079
  114  O  7 YZ   -0.000027   0.000579   0.000073  -0.000146   0.000852

                     11         12         13         14         15
                   -5.4096    -5.4010    -5.4010    -5.3058    -5.2783
                     A          A          A          A          A   
    1  FE 1  S   -0.028295   0.000054   0.000012  -0.016423   0.000014
    2  FE 1  S    0.065756  -0.000169   0.000010   0.042329  -0.000053
    3  FE 1  S   -0.003341  -0.000005   0.000007  -0.001902   0.000003
    4  FE 1  X   -0.000193  -0.042320   0.020733  -0.000078  -0.021583
    5  FE 1  Y   -0.000040  -0.020805  -0.042264  -0.000050   0.019717
    6  FE 1  Z    0.026294  -0.000049  -0.000013  -0.042737   0.000044
    7  FE 1  X    0.000069   0.016917  -0.010507   0.000033   0.016130
    8  FE 1  Y    0.000021   0.010484   0.016911   0.000044  -0.007167
    9  FE 1  Z   -0.005239   0.000021   0.000001   0.017325  -0.000025
   10  FE 1  X   -0.000003  -0.001271   0.001748  -0.000002  -0.002498
   11  FE 1  Y   -0.000006  -0.001741  -0.001275  -0.000006  -0.000035
   12  FE 1  Z   -0.001162   0.000002   0.000001  -0.001797   0.000004
   13  FE 1 XX    0.012894   0.040072   0.041389  -0.016976   0.030653
   14  FE 1 YY    0.012650  -0.040145  -0.041386  -0.016876  -0.030615
   15  FE 1 ZZ   -0.025544   0.000072  -0.000003   0.033852  -0.000038
   16  FE 1 XY    0.000268   0.047800  -0.046260  -0.000167  -0.041628
   17  FE 1 XZ   -0.000259  -0.056342   0.030344   0.000284   0.076863
   18  FE 1 YZ   -0.000053  -0.030458  -0.056262   0.000165  -0.063440
   19  FE 1 XX    0.004383   0.006091   0.005132  -0.001646   0.008399
   20  FE 1 YY    0.004347  -0.006120  -0.005128  -0.001645  -0.008397
   21  FE 1 ZZ   -0.008730   0.000029  -0.000003   0.003290  -0.000002
   22  FE 1 XY    0.000038   0.005924  -0.007047  -0.000026  -0.004132
   23  FE 1 XZ   -0.000042  -0.005074   0.007038   0.000017   0.009635
   24  FE 1 YZ   -0.000015  -0.007049  -0.005064   0.000022  -0.006463
   25  O  2  S   -0.014889  -0.004698   0.001040  -0.125847  -0.179307
   26  O  2  S    0.031418   0.009613  -0.002565   0.252008   0.358861
   27  O  2  X   -0.002511   0.001854  -0.000112  -0.013270  -0.004847
   28  O  2  Y    0.001863   0.002446   0.001554   0.006908   0.000654
   29  O  2  Z   -0.005593  -0.001717   0.000345  -0.006090  -0.011264
   30  O  2  S    0.033274   0.011093  -0.001434   0.343408   0.497503
   31  O  2  X    0.001778   0.001063   0.000940  -0.013635  -0.011368
   32  O  2  Y    0.000242   0.001565  -0.000619   0.005559   0.000787
   33  O  2  Z    0.000183  -0.002230   0.000900  -0.006233  -0.016128
   34  O  2 XX   -0.000067  -0.000172   0.000150   0.000560   0.000086
   35  O  2 YY    0.000105   0.000027  -0.000106   0.000387   0.000032
   36  O  2 ZZ   -0.000038   0.000145  -0.000043  -0.000947  -0.000117
   37  O  2 XY    0.000316   0.000330  -0.000143  -0.000317   0.000489
   38  O  2 XZ   -0.001197  -0.000938   0.000072  -0.006449  -0.007839
   39  O  2 YZ   -0.000704  -0.000666  -0.000133  -0.006139  -0.009468
   40  O  3  S   -0.014868   0.001510  -0.004632  -0.125745   0.121084
   41  O  3  S    0.031377  -0.002711   0.009695   0.251809  -0.242082
   42  O  3  X   -0.000334   0.002643  -0.001993   0.000695   0.004400
   43  O  3  Y   -0.003109   0.000578   0.000761  -0.014960   0.003029
   44  O  3  Z   -0.005586   0.000580  -0.001672  -0.006074   0.007664
   45  O  3  S    0.033217  -0.004444   0.010431   0.343100  -0.336886
   46  O  3  X   -0.001090   0.000887  -0.001669   0.002012   0.001272
   47  O  3  Y    0.001419  -0.001042  -0.000444  -0.014586   0.006990
   48  O  3  Z    0.000199   0.000337  -0.002387  -0.006196   0.011458
   49  O  3 XX    0.000298   0.000016   0.000270   0.000189  -0.000326
   50  O  3 YY   -0.000260   0.000018  -0.000417   0.000755   0.000174
   51  O  3 ZZ   -0.000038  -0.000034   0.000147  -0.000944   0.000153
   52  O  3 XY   -0.000070   0.000082  -0.000028   0.000079  -0.000624
   53  O  3 XZ    0.001203  -0.000596   0.000870   0.008532  -0.008210
   54  O  3 YZ   -0.000682   0.000129  -0.000481  -0.002509   0.001480
   55  O  4  S   -0.014853   0.003326   0.003566  -0.125050   0.058662
   56  O  4  S    0.031343  -0.007187  -0.007076   0.250418  -0.117656
   57  O  4  X    0.002869   0.000606  -0.001736   0.012562   0.001775
   58  O  4  Y    0.001254   0.000818   0.002789   0.008019  -0.006181
   59  O  4  Z   -0.005585   0.001186   0.001320  -0.006035   0.003608
   60  O  4  S    0.033185  -0.006973  -0.008933   0.341193  -0.161808
   61  O  4  X   -0.000698  -0.001285  -0.000210   0.011577   0.000269
   62  O  4  Y   -0.001659   0.000419   0.001727   0.008946  -0.007065
   63  O  4  Z    0.000199   0.001901   0.001480  -0.006161   0.004675
   64  O  4 XX   -0.000173   0.000192   0.000201   0.000678   0.000728
   65  O  4 YY    0.000212  -0.000082  -0.000099   0.000277  -0.000698
   66  O  4 ZZ   -0.000039  -0.000110  -0.000103  -0.000956  -0.000030
   67  O  4 XY   -0.000245   0.000306   0.000130   0.000230  -0.000338
   68  O  4 XZ   -0.000011  -0.000076   0.000169  -0.002079   0.001472
   69  O  4 YZ    0.001384  -0.000576  -0.000996   0.008610  -0.003701
   70  O  5  S   -0.127534  -0.181972   0.007997   0.019012   0.005186
   71  O  5  S    0.256739   0.364182  -0.016475  -0.037857  -0.010476
   72  O  5  X   -0.005727  -0.004071  -0.000410  -0.002407   0.002896
   73  O  5  Y   -0.005184  -0.005545   0.001713  -0.001400  -0.003816
   74  O  5  Z    0.001191   0.000813  -0.000012   0.006023   0.002830
   75  O  5  S    0.345542   0.502320  -0.020136  -0.057477  -0.016899
   76  O  5  X    0.007517   0.007387  -0.002131   0.001075   0.002436
   77  O  5  Y   -0.007509  -0.012186   0.001220  -0.000149  -0.004472
   78  O  5  Z   -0.009900  -0.009744   0.000608   0.005709   0.004244
   79  O  5 XX   -0.000034   0.000233   0.000441  -0.000498  -0.000473
   80  O  5 YY    0.001450   0.001560  -0.000350  -0.000258   0.000037
   81  O  5 ZZ   -0.001416  -0.001793  -0.000090   0.000756   0.000436
   82  O  5 XY   -0.004239  -0.005364   0.000147   0.000311  -0.000197
   83  O  5 XZ   -0.002465  -0.004845   0.000221   0.000657   0.000849
   84  O  5 YZ   -0.006192  -0.009418   0.000228   0.000683  -0.000520
   85  O  6  S   -0.126576   0.084623  -0.162056   0.019004  -0.003093
   86  O  6  S    0.254806  -0.168951   0.324551  -0.037844   0.006372
   87  O  6  X    0.007299  -0.002329   0.006559   0.002433   0.001808
   88  O  6  Y   -0.002325   0.001410  -0.000004  -0.001397  -0.003389
   89  O  6  Z    0.001157  -0.000381   0.000676   0.006015  -0.002885
   90  O  6  S    0.342952  -0.235256   0.446396  -0.057445   0.009299
   91  O  6  X    0.002716  -0.003452   0.005954  -0.000401  -0.001018
   92  O  6  Y    0.010231  -0.004186   0.012125   0.000984  -0.002194
   93  O  6  Z   -0.009875   0.004411  -0.008818   0.005699  -0.005463
   94  O  6 XX   -0.002102   0.001454  -0.002428  -0.000077   0.000855
   95  O  6 YY    0.003493  -0.002425   0.003921  -0.000672   0.000015
   96  O  6 ZZ   -0.001391   0.000971  -0.001494   0.000749  -0.000870
   97  O  6 XY    0.002862  -0.001291   0.003165  -0.000043  -0.000792
   98  O  6 XZ    0.006530  -0.005045   0.009327  -0.000916   0.000215
   99  O  6 YZ    0.000968  -0.000334   0.000423   0.000225  -0.000443
  100  O  7  S   -0.126699   0.098593   0.153852   0.018983  -0.002163
  101  O  7  S    0.255061  -0.197721  -0.307670  -0.037802   0.004239
  102  O  7  X   -0.001626   0.002870   0.001578   0.000012   0.002709
  103  O  7  Y    0.007515  -0.003616  -0.005209   0.002798  -0.002687
  104  O  7  Z    0.001180  -0.000416  -0.000692   0.006002   0.000026
  105  O  7  S    0.343269  -0.270474  -0.425667  -0.057371   0.007820
  106  O  7  X   -0.010222   0.009034   0.011329  -0.000640   0.002678
  107  O  7  Y   -0.002726   0.001208  -0.000368  -0.000850  -0.000345
  108  O  7  Z   -0.009854   0.005445   0.008157   0.005682   0.001199
  109  O  7 XX    0.004241  -0.002881  -0.004434  -0.000554   0.000315
  110  O  7 YY   -0.002845   0.002063   0.002848  -0.000196  -0.000748
  111  O  7 ZZ   -0.001397   0.000818   0.001587   0.000750   0.000432
  112  O  7 XY    0.001375  -0.000743  -0.001920  -0.000277   0.000182
  113  O  7 XZ   -0.004099   0.002960   0.004924   0.000265   0.000598
  114  O  7 YZ    0.005181  -0.004738  -0.007558  -0.000905   0.000069

                     16         17         18         19         20
                   -5.2782    -5.0034    -5.0034    -4.9969    -4.9969
                     A          A          A          A          A   
    1  FE 1  S   -0.000016  -0.000029  -0.000010  -0.000014  -0.000009
    2  FE 1  S    0.000079  -0.000029  -0.000025  -0.000017  -0.000008
    3  FE 1  S    0.000008  -0.000024  -0.000011  -0.000005  -0.000009
    4  FE 1  X    0.019683  -0.008610  -0.001412  -0.002709   0.005893
    5  FE 1  Y    0.021579  -0.001438   0.008600   0.005900   0.002698
    6  FE 1  Z   -0.000066   0.000009   0.000002   0.000000  -0.000011
    7  FE 1  X   -0.007144  -0.016161  -0.005411   0.003180  -0.007142
    8  FE 1  Y   -0.016126  -0.005463   0.016117  -0.007146  -0.003147
    9  FE 1  Z    0.000059   0.000039   0.000006  -0.000001  -0.000002
   10  FE 1  X   -0.000034   0.001881   0.001226  -0.000408   0.000982
   11  FE 1  Y    0.002498   0.001232  -0.001879   0.000983   0.000406
   12  FE 1  Z   -0.000007  -0.000004   0.000001   0.000000   0.000002
   13  FE 1 XX    0.036069   0.277801  -0.601611   0.409197   0.158521
   14  FE 1 YY   -0.036096  -0.278071   0.601641  -0.407704  -0.155948
   15  FE 1 ZZ    0.000028   0.000271  -0.000030  -0.001493  -0.002573
   16  FE 1 XY    0.035345   0.694267   0.321564  -0.180591   0.472227
   17  FE 1 XZ   -0.063369  -0.466471  -0.142808  -0.181169   0.756589
   18  FE 1 YZ   -0.076858  -0.143585   0.465706   0.757050   0.180613
   19  FE 1 XX    0.003588   0.040221  -0.083412   0.070313   0.028157
   20  FE 1 YY   -0.003595  -0.040273   0.083417  -0.070076  -0.027751
   21  FE 1 ZZ    0.000007   0.000052  -0.000006  -0.000237  -0.000406
   22  FE 1 XY    0.009705   0.096260   0.046590  -0.032126   0.081133
   23  FE 1 XZ   -0.006460  -0.057613  -0.018743  -0.025548   0.114835
   24  FE 1 YZ   -0.009643  -0.018840   0.057488   0.114897   0.025459
   25  O  2  S    0.035720  -0.016188  -0.020610  -0.008174   0.011670
   26  O  2  S   -0.071204   0.034703   0.044048   0.017788  -0.025532
   27  O  2  X   -0.002356   0.015343   0.013094   0.020027  -0.006470
   28  O  2  Y   -0.005741  -0.003398  -0.013269   0.004620   0.021950
   29  O  2  Z    0.002327   0.019505   0.025516   0.004020  -0.009225
   30  O  2  S   -0.100198   0.058121   0.073950   0.028267  -0.040204
   31  O  2  X   -0.000377   0.011802   0.007704   0.012030  -0.003726
   32  O  2  Y   -0.004820  -0.003944  -0.013588   0.001003   0.014209
   33  O  2  Z    0.003906   0.012877   0.017791   0.001656  -0.008068
   34  O  2 XX    0.000643  -0.000692  -0.000238  -0.000405   0.000370
   35  O  2 YY   -0.000749   0.002351   0.002296   0.000932  -0.001242
   36  O  2 ZZ    0.000106  -0.001659  -0.002058  -0.000526   0.000872
   37  O  2 XY    0.000346   0.001737   0.002282   0.001411  -0.001362
   38  O  2 XZ    0.001674  -0.004848  -0.005504  -0.003077   0.002680
   39  O  2 YZ    0.001859   0.001098   0.001459   0.000134  -0.001064
   40  O  3  S    0.137078  -0.009767   0.024327   0.014202   0.001183
   41  O  3  S   -0.274489   0.020820  -0.052087  -0.031024  -0.002512
   42  O  3  X   -0.004687   0.006645   0.001650  -0.006645   0.020026
   43  O  3  Y    0.003487   0.008076  -0.021968  -0.021878  -0.004587
   44  O  3  Z    0.008564   0.012364  -0.029652  -0.010012   0.001117
   45  O  3  S   -0.379799   0.035031  -0.087308  -0.048981  -0.004150
   46  O  3  X   -0.006507   0.008103  -0.001791  -0.005594   0.011177
   47  O  3  Y    0.007791   0.005573  -0.017298  -0.013908  -0.003333
   48  O  3  Z    0.011971   0.008985  -0.020054  -0.007826   0.002580
   49  O  3 XX   -0.000281   0.001477  -0.004194  -0.002441  -0.000493
   50  O  3 YY    0.000239  -0.000523   0.001727   0.001422   0.000473
   51  O  3 ZZ    0.000043  -0.000954   0.002467   0.001019   0.000019
   52  O  3 XY    0.000661  -0.000217  -0.000630  -0.000091   0.000094
   53  O  3 XZ   -0.009246   0.000553  -0.002020  -0.001073  -0.001016
   54  O  3 YZ    0.001506  -0.002391   0.006862   0.003839   0.000926
   55  O  4  S   -0.173744   0.025947  -0.003718  -0.006033  -0.012884
   56  O  4  S    0.347582  -0.055505   0.008038   0.013244   0.028105
   57  O  4  X    0.004512   0.020954  -0.000172  -0.016296  -0.016333
   58  O  4  Y    0.000894   0.009864  -0.007703   0.014399  -0.014326
   59  O  4  Z   -0.010936  -0.031788   0.004123   0.005902   0.008002
   60  O  4  S    0.482596  -0.093119   0.013365   0.020733   0.044485
   61  O  4  X    0.007546   0.018201  -0.000266  -0.009721  -0.011536
   62  O  4  Y    0.006810   0.004025  -0.007213   0.008749  -0.007523
   63  O  4  Z   -0.015959  -0.021799   0.002246   0.006101   0.005406
   64  O  4 XX    0.000067  -0.000096   0.000271   0.000072  -0.000494
   65  O  4 YY    0.000106  -0.002510   0.000136   0.000416   0.001381
   66  O  4 ZZ   -0.000173   0.002605  -0.000407  -0.000488  -0.000887
   67  O  4 XY   -0.000467   0.003281  -0.000866  -0.000607  -0.001929
   68  O  4 XZ   -0.004111  -0.005158   0.000914   0.001126   0.002553
   69  O  4 YZ    0.011219  -0.005313   0.001140   0.000257   0.003134
   70  O  5  S   -0.000496   0.023424  -0.005636   0.000918  -0.005787
   71  O  5  S    0.001154  -0.050766   0.013083  -0.002937   0.012950
   72  O  5  X   -0.002793  -0.073082   0.006155   0.018449   0.022505
   73  O  5  Y   -0.002066  -0.026796   0.024889  -0.033392   0.020131
   74  O  5  Z   -0.001664   0.041880  -0.011827   0.008963   0.015975
   75  O  5  S    0.000711  -0.089973   0.019582  -0.001407   0.021878
   76  O  5  X   -0.000203  -0.062914   0.006664   0.015823   0.019510
   77  O  5  Y   -0.000298  -0.019697   0.018379  -0.027832   0.014251
   78  O  5  Z   -0.003837   0.040581  -0.013147   0.008940   0.007576
   79  O  5 XX    0.000672   0.007354  -0.000521  -0.001899  -0.002371
   80  O  5 YY    0.000079  -0.004156   0.000072   0.001294  -0.000232
   81  O  5 ZZ   -0.000751  -0.003198   0.000449   0.000606   0.002603
   82  O  5 XY    0.000832   0.009064  -0.002798   0.001272  -0.003240
   83  O  5 XZ   -0.000075  -0.006140   0.001104   0.000112   0.000474
   84  O  5 YZ   -0.000258  -0.002122   0.001162  -0.000585  -0.000412
   85  O  6  S   -0.004186  -0.016556  -0.017428  -0.005482   0.002133
   86  O  6  S    0.008376   0.036644   0.037346   0.012710  -0.003998
   87  O  6  X   -0.003191  -0.051035  -0.039314  -0.034643  -0.002655
   88  O  6  Y   -0.003132   0.018757   0.046616  -0.008114  -0.032969
   89  O  6  Z   -0.001595  -0.031097  -0.030289   0.009294  -0.015507
   90  O  6  S    0.014115   0.061810   0.067983   0.019702  -0.009878
   91  O  6  X   -0.002473  -0.040803  -0.032320  -0.027205  -0.002921
   92  O  6  Y   -0.003752   0.019342   0.040244  -0.005295  -0.028763
   93  O  6  Z   -0.001734  -0.031611  -0.028524   0.002047  -0.011352
   94  O  6 XX   -0.000220  -0.004633  -0.003695  -0.003480   0.000349
   95  O  6 YY    0.000220   0.002643   0.001151   0.001536   0.001464
   96  O  6 ZZ    0.000000   0.001989   0.002544   0.001944  -0.001813
   97  O  6 XY    0.000049   0.006599   0.008042   0.001853  -0.002178
   98  O  6 XZ   -0.000155  -0.003791  -0.003466  -0.000125  -0.000429
   99  O  6 YZ   -0.000893   0.002447   0.003483   0.000349  -0.000651
  100  O  7  S    0.004811  -0.006823   0.023081   0.004598   0.003704
  101  O  7  S   -0.009794   0.014043  -0.050468  -0.009842  -0.009054
  102  O  7  X   -0.003918  -0.022620   0.002366   0.013697  -0.036085
  103  O  7  Y   -0.002226  -0.022904   0.075161   0.025301   0.015421
  104  O  7  Z    0.003315  -0.010656   0.042143  -0.018084  -0.000124
  105  O  7  S   -0.015207   0.027990  -0.087615  -0.018431  -0.012216
  106  O  7  X   -0.004337  -0.018055   0.006224   0.013744  -0.028995
  107  O  7  Y   -0.000044  -0.019180   0.063087   0.020754   0.012214
  108  O  7  Z    0.005622  -0.008883   0.041680  -0.010852   0.004032
  109  O  7 XX    0.000245   0.002283  -0.007997  -0.001225  -0.001234
  110  O  7 YY   -0.001001  -0.003495   0.010991   0.003776   0.002007
  111  O  7 ZZ    0.000756   0.001212  -0.002994  -0.002550  -0.000774
  112  O  7 XY   -0.000079  -0.001561   0.000514   0.000639  -0.002202
  113  O  7 XZ   -0.000665  -0.001005   0.000839   0.000794  -0.000189
  114  O  7 YZ   -0.000510  -0.001854   0.006288   0.000101   0.000281

                     21         22         23         24         25
                   -4.9958    -4.7312    -4.7209    -4.7209    -4.6988
                     A          A          A          A          A   
    1  FE 1  S    0.003492  -0.026770   0.000003   0.000041  -0.000789
    2  FE 1  S   -0.003732   0.258784   0.000104  -0.000632  -0.033816
    3  FE 1  S    0.002797  -0.061070  -0.000040   0.000124   0.011029
    4  FE 1  X    0.000019  -0.000206   0.051911  -0.044821   0.000045
    5  FE 1  Y    0.000019  -0.000110  -0.044811  -0.051842   0.000043
    6  FE 1  Z    0.002755   0.037940   0.000010  -0.000078  -0.035986
    7  FE 1  X   -0.000011   0.000130  -0.078395   0.067589   0.000093
    8  FE 1  Y   -0.000028   0.000149   0.067613   0.078199  -0.000047
    9  FE 1  Z   -0.003598  -0.013227   0.000010   0.000048   0.052906
   10  FE 1  X    0.000002  -0.000022   0.005740  -0.008162   0.000000
   11  FE 1  Y    0.000003  -0.000009  -0.008162  -0.005729   0.000008
   12  FE 1  Z   -0.000086   0.005161   0.000005  -0.000014  -0.005987
   13  FE 1 XX   -0.463610  -0.048251   0.078196   0.002074  -0.041437
   14  FE 1 YY   -0.465620  -0.047990  -0.078212  -0.001876  -0.041216
   15  FE 1 ZZ    0.929230   0.096242   0.000016  -0.000198   0.082652
   16  FE 1 XY    0.000860   0.000043  -0.002266   0.090236   0.000106
   17  FE 1 XZ    0.001918   0.000380  -0.029613   0.086698  -0.000100
   18  FE 1 YZ    0.001764   0.000015   0.086705   0.029535  -0.000078
   19  FE 1 XX   -0.073595  -0.010714   0.005529  -0.001247  -0.003600
   20  FE 1 YY   -0.073958  -0.010640  -0.005535   0.001295  -0.003558
   21  FE 1 ZZ    0.147554   0.021354   0.000006  -0.000049   0.007158
   22  FE 1 XY    0.000157  -0.000052   0.001446   0.006375   0.000072
   23  FE 1 XZ    0.000291   0.000092  -0.004112   0.017211  -0.000059
   24  FE 1 YZ    0.000259   0.000008   0.017209   0.004133  -0.000029
   25  O  2  S    0.005449   0.014313  -0.013215   0.002029   0.004467
   26  O  2  S   -0.011243  -0.026448   0.026821  -0.003778  -0.009952
   27  O  2  X   -0.018057  -0.036430  -0.007142   0.017241   0.010879
   28  O  2  Y    0.009744   0.037626  -0.035151   0.025516   0.027190
   29  O  2  Z    0.008035  -0.075416   0.082832  -0.022211  -0.033411
   30  O  2  S   -0.021204  -0.065862   0.059852  -0.011381  -0.019164
   31  O  2  X   -0.011596  -0.010249  -0.018806   0.014872   0.017733
   32  O  2  Y    0.004398   0.032351  -0.043515   0.015823   0.029786
   33  O  2  Z    0.006390  -0.059118   0.080919  -0.023847  -0.043936
   34  O  2 XX    0.000723  -0.000026   0.000248   0.000019   0.000402
   35  O  2 YY   -0.000517  -0.002394   0.002806  -0.000890  -0.001482
   36  O  2 ZZ   -0.000206   0.002420  -0.003055   0.000871   0.001080
   37  O  2 XY   -0.001436   0.000595  -0.001080   0.000335   0.001073
   38  O  2 XZ    0.001563   0.002322  -0.000827  -0.000529  -0.000046
   39  O  2 YZ    0.000115   0.000148   0.001084  -0.000558  -0.001858
   40  O  3  S    0.005464   0.014322   0.008403   0.010372   0.004460
   41  O  3  S   -0.011276  -0.026458  -0.016766  -0.021231  -0.009941
   42  O  3  X    0.000692  -0.014329  -0.043666  -0.014014  -0.029000
   43  O  3  Y   -0.020546  -0.050366  -0.003973  -0.010724  -0.004195
   44  O  3  Z    0.008035  -0.075431  -0.060833  -0.060346  -0.033347
   45  O  3  S   -0.021251  -0.065923  -0.039935  -0.045866  -0.019123
   46  O  3  X    0.002042  -0.022909  -0.041912  -0.030111  -0.034687
   47  O  3  Y   -0.012264  -0.025064   0.001461  -0.007073   0.000441
   48  O  3  Z    0.006395  -0.059126  -0.061269  -0.057936  -0.043876
   49  O  3 XX   -0.001288  -0.001353  -0.001037  -0.000959  -0.000203
   50  O  3 YY    0.001494  -0.001065  -0.001249  -0.001240  -0.000873
   51  O  3 ZZ   -0.000206   0.002418   0.002286   0.002199   0.001076
   52  O  3 XY    0.000099  -0.001482  -0.001453  -0.001259  -0.001476
   53  O  3 XZ   -0.000887  -0.001289   0.000908   0.000088   0.001635
   54  O  3 YZ    0.001302   0.001936   0.000478   0.001171   0.000888
   55  O  4  S    0.005356   0.014257   0.004835  -0.012516   0.004476
   56  O  4  S   -0.011043  -0.026338  -0.010105   0.025239  -0.009980
   57  O  4  X    0.017294   0.050645   0.001700  -0.030249   0.018175
   58  O  4  Y    0.010751   0.012827   0.012100   0.034297  -0.022999
   59  O  4  Z    0.008102  -0.074976  -0.022102   0.083040  -0.033414
   60  O  4  S   -0.020877  -0.065591  -0.020021   0.057726  -0.019174
   61  O  4  X    0.009492   0.033029   0.008678  -0.027799   0.016966
   62  O  4  Y    0.007835  -0.007161  -0.001001   0.043283  -0.030217
   63  O  4  Z    0.006437  -0.058706  -0.019738   0.082137  -0.043916
   64  O  4 XX    0.000865  -0.002237  -0.000693   0.003045  -0.001819
   65  O  4 YY   -0.000657  -0.000172  -0.000078   0.000046   0.000739
   66  O  4 ZZ   -0.000208   0.002409   0.000771  -0.003091   0.001080
   67  O  4 XY    0.001320   0.000880   0.000120  -0.000787   0.000403
   68  O  4 XZ   -0.000663  -0.001023  -0.000489   0.001278  -0.001582
   69  O  4 YZ   -0.001394  -0.002078  -0.000723  -0.000217   0.000972
   70  O  5  S   -0.006116   0.008679  -0.004591   0.004171  -0.001308
   71  O  5  S    0.012338  -0.006319   0.013137  -0.000758  -0.003081
   72  O  5  X    0.007653  -0.211298  -0.141781  -0.106243   0.219637
   73  O  5  Y    0.005389  -0.121654   0.318914  -0.018304  -0.158200
   74  O  5  Z   -0.036347   0.156927  -0.161635   0.097766   0.146102
   75  O  5  S    0.026382  -0.067861   0.018259  -0.043540   0.021457
   76  O  5  X    0.005824  -0.193174  -0.170679  -0.112899   0.235549
   77  O  5  Y    0.006346  -0.112201   0.358653  -0.024304  -0.190609
   78  O  5  Z   -0.027519   0.163616  -0.180570   0.096980   0.157625
   79  O  5 XX   -0.000361   0.003947  -0.003656   0.002172   0.002967
   80  O  5 YY    0.001081  -0.000513   0.004234  -0.000103  -0.004518
   81  O  5 ZZ   -0.000720  -0.003434  -0.000579  -0.002069   0.001551
   82  O  5 XY   -0.001188   0.006111   0.002619   0.003043  -0.006008
   83  O  5 XZ    0.002218   0.003139  -0.001722   0.001214   0.001699
   84  O  5 YZ    0.001661  -0.000132  -0.006121  -0.001404   0.002353
   85  O  6  S   -0.006089   0.008666   0.005935   0.001866  -0.001317
   86  O  6  S    0.012287  -0.006332  -0.007244  -0.011018  -0.003072
   87  O  6  X   -0.008496   0.210745   0.163034   0.142566   0.027273
   88  O  6  Y    0.003747  -0.121415   0.068911   0.286469   0.269028
   89  O  6  Z   -0.036319   0.156690   0.166046   0.090693   0.146419
   90  O  6  S    0.026264  -0.067717  -0.047062   0.006274   0.021566
   91  O  6  X   -0.008408   0.193444   0.180338   0.155719   0.047444
   92  O  6  Y    0.001709  -0.110336   0.089031   0.326720   0.298930
   93  O  6  Z   -0.027504   0.163390   0.174878   0.107513   0.158047
   94  O  6 XX   -0.000176   0.005174   0.000291  -0.005063  -0.007153
   95  O  6 YY    0.000894  -0.001745   0.001232   0.003517   0.005611
   96  O  6 ZZ   -0.000718  -0.003430  -0.001523   0.001546   0.001542
   97  O  6 XY    0.001305  -0.005266  -0.003632  -0.000931  -0.000747
   98  O  6 XZ   -0.002538  -0.001469  -0.002562  -0.005640  -0.002881
   99  O  6 YZ    0.001077   0.002795   0.000759  -0.002251   0.000301
  100  O  7  S   -0.006073   0.008664  -0.001328  -0.006106  -0.001309
  101  O  7  S    0.012247  -0.006322  -0.005914   0.011831  -0.003073
  102  O  7  X    0.000803   0.001315  -0.205853   0.281842  -0.246704
  103  O  7  Y   -0.009136   0.243172  -0.069566  -0.083391  -0.110807
  104  O  7  Z   -0.036365   0.156140  -0.004002  -0.189515   0.146418
  105  O  7  S    0.026211  -0.067700   0.028719   0.037801   0.021469
  106  O  7  X    0.002563   0.000578  -0.228663   0.325127  -0.282725
  107  O  7  Y   -0.008060   0.222677  -0.079655  -0.083244  -0.108309
  108  O  7  Z   -0.027510   0.162760   0.006156  -0.205581   0.157999
  109  O  7 XX    0.001600  -0.003974   0.001435   0.001176   0.001860
  110  O  7 YY   -0.000870   0.007406  -0.003523  -0.001727  -0.003409
  111  O  7 ZZ   -0.000730  -0.003432   0.002087   0.000551   0.001549
  112  O  7 XY   -0.000129  -0.000846   0.002957  -0.004339   0.006740
  113  O  7 XZ    0.000334  -0.001707   0.003801  -0.002910   0.001172
  114  O  7 YZ   -0.002742  -0.002634  -0.001968   0.004123  -0.002644

                     26         27         28         29         30
                   -4.6798    -4.6798    -4.6624    -4.6309    -4.6271
                     A          A          A          A          A   
    1  FE 1  S   -0.000046  -0.000017   0.001044  -0.000558   0.000042
    2  FE 1  S    0.000026   0.000093  -0.001943  -0.066406   0.000005
    3  FE 1  S   -0.000081  -0.000068  -0.033999   0.010720   0.000124
    4  FE 1  X   -0.050266  -0.046351  -0.000033  -0.000040   0.056069
    5  FE 1  Y   -0.046499   0.050186   0.000001   0.000030   0.009473
    6  FE 1  Z   -0.000017   0.000012  -0.048614   0.049940  -0.000022
    7  FE 1  X   -0.023701   0.040985   0.000064   0.000062  -0.007296
    8  FE 1  Y    0.041069   0.023572  -0.000020   0.000084   0.032842
    9  FE 1  Z    0.000052   0.000051   0.126970  -0.050251  -0.000069
   10  FE 1  X   -0.004267  -0.006432  -0.000007  -0.000009   0.010352
   11  FE 1  Y   -0.006437   0.004275   0.000004  -0.000003  -0.000072
   12  FE 1  Z   -0.000005  -0.000003  -0.005839   0.008798   0.000005
[...]
             59  O  4  Z      0.92429     0.91952
             60  O  4  S      1.17326     0.58129
             61  O  4  X      0.97866     0.94780
             62  O  4  Y      0.99450     0.97235
             63  O  4  Z      0.95298     0.93692
             64  O  4 XX      0.00060     0.19971
             65  O  4 YY      0.00071     0.20291
             66  O  4 ZZ      0.00083     0.19663
             67  O  4 XY      0.00077     0.00106
             68  O  4 XZ      0.00165     0.00126
             69  O  4 YZ      0.00000     0.00194
             70  O  5  S      1.99777     1.97823
             71  O  5  S      0.80623     0.67910
             72  O  5  X      0.94291     0.93818
             73  O  5  Y      0.93198     0.93433
             74  O  5  Z      0.95732     0.96108
             75  O  5  S      1.16104     0.56941
             76  O  5  X      0.98540     0.93679
             77  O  5  Y      1.01063     0.97689
             78  O  5  Z      1.01248     0.96984
             79  O  5 XX      0.00045     0.19187
             80  O  5 YY      0.00059     0.19979
             81  O  5 ZZ      0.00111     0.19494
             82  O  5 XY      0.00080     0.00197
             83  O  5 XZ      0.00114     0.00192
             84  O  5 YZ      0.00000     0.00156
             85  O  6  S      1.99777     1.97823
             86  O  6  S      0.80620     0.67891
             87  O  6  X      0.96961     0.96026
             88  O  6  Y      0.90536     0.91218
             89  O  6  Z      0.95724     0.96086
             90  O  6  S      1.16117     0.56891
             91  O  6  X      0.94641     0.91324
             92  O  6  Y      1.04960     1.00146
             93  O  6  Z      1.01268     0.96927
             94  O  6 XX      0.00045     0.18860
             95  O  6 YY      0.00075     0.20270
             96  O  6 ZZ      0.00094     0.19472
             97  O  6 XY      0.00110     0.00203
             98  O  6 XZ      0.00084     0.00185
             99  O  6 YZ      0.00000     0.00158
            100  O  7  S      1.99777     1.97823
            101  O  7  S      0.80622     0.67955
            102  O  7  X      0.89979     0.90954
            103  O  7  Y      0.97516     0.96325
            104  O  7  Z      0.95725     0.96136
            105  O  7  S      1.16111     0.57086
            106  O  7  X      1.06232     1.01586
            107  O  7  Y      0.93363     0.89553
            108  O  7  Z      1.01259     0.97152
            109  O  7 XX      0.00045     0.20713
            110  O  7 YY      0.00120     0.18619
            111  O  7 ZZ      0.00049     0.19553
            112  O  7 XY      0.00101     0.00104
            113  O  7 XZ      0.00093     0.00137
            114  O  7 YZ      0.00000     0.00212

          ----- MULLIKEN ATOMIC OVERLAP POPULATIONS -----
          (OFF-DIAGONAL ELEMENTS NEED TO BE MULTIPLIED BY 2)

             1           2           3           4           5

    1   13.7584844
    2    0.1314201   9.6981679
    3    0.1314630  -0.0270769   9.6981964
    4    0.1315866  -0.0269267  -0.0270279   9.6979040
    5    0.0599814  -0.0180039  -0.0113160  -0.0006175   9.7969817
    6    0.0600670  -0.0006158  -0.0179628  -0.0112879  -0.0085844
    7    0.0601135  -0.0112842  -0.0006181  -0.0179659  -0.0085940
    8    0.0000000   0.0000000   0.0000000   0.0000000   0.0000000
    9    0.0000000   0.0000000   0.0000000   0.0000000   0.0000000
   10    0.0000000   0.0000000   0.0000000   0.0000000   0.0000000
   11    0.0000000   0.0000000   0.0000000   0.0000000   0.0000000
   12    0.0000000   0.0000000   0.0000000   0.0000000   0.0000000
   13    0.0000000   0.0000000   0.0000000   0.0000000   0.0000000
   14    0.0000000   0.0000000   0.0000000   0.0000000   0.0000000
   15    0.0000000   0.0000000   0.0000000   0.0000000   0.0000000
   16    0.0000000   0.0000000   0.0000000   0.0000000   0.0000000
   17    0.0000000   0.0000000   0.0000000   0.0000000   0.0000000
   18    0.0000000   0.0000000   0.0000000   0.0000000   0.0000000
   19    0.0000000   0.0000000   0.0000000   0.0000000   0.0000000
   20    0.0000000   0.0000000   0.0000000   0.0000000   0.0000000

             6           7           8           9          10

    6    9.7970789
    7   -0.0085754   9.7968385
    8    0.0000000   0.0000000   0.0000000
    9    0.0000000   0.0000000   0.0000000   0.0000000
   10    0.0000000   0.0000000   0.0000000   0.0000000   0.0000000
   11    0.0000000   0.0000000   0.0000000   0.0000000   0.0000000
   12    0.0000000   0.0000000   0.0000000   0.0000000   0.0000000
   13    0.0000000   0.0000000   0.0000000   0.0000000   0.0000000
   14    0.0000000   0.0000000   0.0000000   0.0000000   0.0000000
   15    0.0000000   0.0000000   0.0000000   0.0000000   0.0000000
   16    0.0000000   0.0000000   0.0000000   0.0000000   0.0000000
   17    0.0000000   0.0000000   0.0000000   0.0000000   0.0000000
   18    0.0000000   0.0000000   0.0000000   0.0000000   0.0000000
   19    0.0000000   0.0000000   0.0000000   0.0000000   0.0000000
   20    0.0000000   0.0000000   0.0000000   0.0000000   0.0000000

            11          12          13          14          15

   11    0.0000000
   12    0.0000000   0.0000000
   13    0.0000000   0.0000000   0.0000000
   14    0.0000000   0.0000000   0.0000000   0.0000000
   15    0.0000000   0.0000000   0.0000000   0.0000000   0.0000000
   16    0.0000000   0.0000000   0.0000000   0.0000000   0.0000000
   17    0.0000000   0.0000000   0.0000000   0.0000000   0.0000000
   18    0.0000000   0.0000000   0.0000000   0.0000000   0.0000000
   19    0.0000000   0.0000000   0.0000000   0.0000000   0.0000000
   20    0.0000000   0.0000000   0.0000000   0.0000000   0.0000000

            16          17          18          19          20

   16    0.0000000
   17    0.0000000   0.0000000
   18    0.0000000   0.0000000   0.0000000
   19    0.0000000   0.0000000   0.0000000   0.0000000
   20    0.0000000   0.0000000   0.0000000   0.0000000   0.0000000

          TOTAL MULLIKEN AND LOWDIN ATOMIC POPULATIONS
       ATOM         MULL.POP.    CHARGE          LOW.POP.     CHARGE
    1 FE           14.333116    1.666884        15.756103    0.243897
    2 O             9.745681   -1.745681         9.543477   -1.543477
    3 O             9.745658   -1.745658         9.546630   -1.546630
    4 O             9.745665   -1.745665         9.543994   -1.543994
    5 O             9.809847   -1.809847         9.535907   -1.535907
    6 O             9.810120   -1.810120         9.534802   -1.534802
    7 O             9.809914   -1.809914         9.539086   -1.539086
    8 AL            0.000000    3.000000         0.000000    3.000000
    9 AL            0.000000    3.000000         0.000000    3.000000
   10 AL            0.000000    3.000000         0.000000    3.000000
   11 AL            0.000000    3.000000         0.000000    3.000000
   12 AL            0.000000    3.000000         0.000000    3.000000
   13 AL            0.000000    3.000000         0.000000    3.000000
   14 AL            0.000000    3.000000         0.000000    3.000000
   15 AL            0.000000    3.000000         0.000000    3.000000
   16 AL            0.000000    3.000000         0.000000    3.000000
   17 AL            0.000000    3.000000         0.000000    3.000000
   18 AL            0.000000    3.000000         0.000000    3.000000
   19 AL            0.000000    3.000000         0.000000    3.000000
   20 AL            0.000000    3.000000         0.000000    3.000000

          MULLIKEN SPHERICAL HARMONIC POPULATIONS
       ATOM           S       P       D      F      G      H      I    TOTAL
    1 FE            2.36    6.47    5.51   0.00   0.00   0.00   0.00   14.33
    2 O             3.98    5.76    0.00   0.00   0.00   0.00   0.00    9.75
    3 O             3.98    5.76    0.00   0.00   0.00   0.00   0.00    9.75
    4 O             3.98    5.76    0.00   0.00   0.00   0.00   0.00    9.75
    5 O             3.97    5.84    0.00   0.00   0.00   0.00   0.00    9.81
    6 O             3.97    5.84    0.00   0.00   0.00   0.00   0.00    9.81
    7 O             3.97    5.84    0.00   0.00   0.00   0.00   0.00    9.81
    8 AL            0.00    0.00    0.00   0.00   0.00   0.00   0.00    0.00
    9 AL            0.00    0.00    0.00   0.00   0.00   0.00   0.00    0.00
   10 AL            0.00    0.00    0.00   0.00   0.00   0.00   0.00    0.00
   11 AL            0.00    0.00    0.00   0.00   0.00   0.00   0.00    0.00
   12 AL            0.00    0.00    0.00   0.00   0.00   0.00   0.00    0.00
   13 AL            0.00    0.00    0.00   0.00   0.00   0.00   0.00    0.00
   14 AL            0.00    0.00    0.00   0.00   0.00   0.00   0.00    0.00
   15 AL            0.00    0.00    0.00   0.00   0.00   0.00   0.00    0.00
   16 AL            0.00    0.00    0.00   0.00   0.00   0.00   0.00    0.00
   17 AL            0.00    0.00    0.00   0.00   0.00   0.00   0.00    0.00
   18 AL            0.00    0.00    0.00   0.00   0.00   0.00   0.00    0.00
   19 AL            0.00    0.00    0.00   0.00   0.00   0.00   0.00    0.00
   20 AL            0.00    0.00    0.00   0.00   0.00   0.00   0.00    0.00

          -------------------------------
          BOND ORDER AND VALENCE ANALYSIS     BOND ORDER THRESHOLD=0.050
          -------------------------------

                   BOND                       BOND                       BOND
  ATOM PAIR DIST  ORDER      ATOM PAIR DIST  ORDER      ATOM PAIR DIST  ORDER
    1   2  2.089  0.442        1   3  2.089  0.442        1   4  2.089  0.442
    1   5  1.960  0.337        1   6  1.961  0.336        1   7  1.961  0.337

                       TOTAL       BONDED        FREE
      ATOM            VALENCE     VALENCE     VALENCE
    1 FE                6.820       2.335       4.485
    2 O                 0.472       0.466       0.007
    3 O                 0.472       0.466       0.007
    4 O                 0.472       0.466       0.007
    5 O                 0.353       0.350       0.003
    6 O                 0.353       0.350       0.003
    7 O                 0.353       0.350       0.003
    8 AL                0.000       0.000       0.000
    9 AL                0.000       0.000       0.000
   10 AL                0.000       0.000       0.000
   11 AL                0.000       0.000       0.000
   12 AL                0.000       0.000       0.000
   13 AL                0.000       0.000       0.000
   14 AL                0.000       0.000       0.000
   15 AL                0.000       0.000       0.000
   16 AL                0.000       0.000       0.000
   17 AL                0.000       0.000       0.000
   18 AL                0.000       0.000       0.000
   19 AL                0.000       0.000       0.000
   20 AL                0.000       0.000       0.000

          -----------------------------------------
          ATOMIC SPIN DENSITY AT THE NUCLEUS (A.U.)
          -----------------------------------------
                            SPIN DENS    ALPHA DENS     BETA DENS
    1  FE          16.0     0.0000213       0.00014       0.00012
    2  O            8.0     0.0755440     145.52400     145.44845
    3  O            8.0     0.0755744     145.52398     145.44841
    4  O            8.0     0.0754303     145.52386     145.44843
    5  O            8.0     0.0794139     145.49989     145.42048
    6  O            8.0     0.0792616     145.49974     145.42048
    7  O            8.0     0.0793156     145.49980     145.42048
    8  AL           3.0     0.0000017       0.00026       0.00026
    9  AL           3.0     0.0000017       0.00026       0.00026
   10  AL           3.0     0.0000017       0.00026       0.00026
   11  AL           3.0     0.0000028       0.00025       0.00024
   12  AL           3.0     0.0000028       0.00025       0.00024
   13  AL           3.0     0.0000028       0.00025       0.00024
   14  AL           3.0    -0.0000025       0.00032       0.00032
   15  AL           3.0     0.0000013       0.00012       0.00012
   16  AL           3.0     0.0000013       0.00012       0.00012
   17  AL           3.0     0.0000013       0.00012       0.00012
   18  AL           3.0    -0.0000019       0.00040       0.00040
   19  AL           3.0    -0.0000019       0.00040       0.00040
   20  AL           3.0    -0.0000019       0.00040       0.00040

          ---------------------
          ELECTROSTATIC MOMENTS
          ---------------------

 POINT   1           X           Y           Z (BOHR)    CHARGE
                54.933748   28.544311   38.469735       30.00 (A.U.)
         DX          DY          DZ         /D/  (DEBYE)
     0.015742    0.000040  -24.456658   24.456663
 ...... END OF PROPERTY EVALUATION ......
 ON NODE 0, STEP CPU TIME =     3.35 TOTAL CPU TIME =        3.5 (    0.1 MIN)
 TOTAL WALL CLOCK TIME=        0.0 SECONDS, CPU UTILIZATION IS 100.00%
         
 ---------------------------------------
 END OF PRELIMINARY POPULATION STUFF
 Found OrbsAA
 populations of d orbitals
 orb        alpha        beta
  D1       1.0065       0.0431
  D2       1.0048       0.0803
  D3       1.0048       0.0802
  D4       1.0134       0.1323
  D5       1.0134       0.1324
  D6       0.0000       0.0000
     
 d-d interactions:
  A-A:      10.1723
  B-B:       0.0848
  A-B:       2.3615
   
 denominators:
  U:      12.6186
  J:      10.2571
         
 ---------------------------------------
 START OF ALPHA COULOMB AND EXCHANGE
 END OF ALPHA COULOMB AND EXCHANGE
 ---------------------------------------
         
 ---------------------------------------
 START OF BETA COULOMB AND EXCHANGE
 END OF BETA COULOMB AND EXCHANGE
 ---------------------------------------
         
 ---------------------------------------
 START OF SELF-INTERACTION
 !!!!!!!!!!!!!!!!!!!!!!!!!!!!!!!!!!!!!!!!!!!!!!
 !!!!!!!!!!!!!!!!!!!!!!!!!!!!!!!!!!!!!!!!!!!!!!
 !!                                          !!
    Screening out all orbitals
    with populations of less than:
        0.000000000000000E+000
    from the self-interaction energy 
    calculation.
    
    alpha orbital populations: 
                     1  6.326857041284953E-005
                     2  6.642796611038815E-005
                     3  8.745404262962996E-005
                     4  8.031345238700388E-005
                     5  7.423960170548522E-005
                     6  7.153636591173024E-005
                     7  2.014354462723386E-007
                     8  2.954767868836985E-005
                     9  2.931807459749928E-005
                    10  3.568777088858672E-006
                    11  2.077840760284283E-003
                    12  1.721649449540099E-002
                    13  1.717748346712823E-002
                    14  1.986546812820571E-003
                    15  2.277669574058368E-002
                    16  2.276710970307864E-002
                    17  0.903913631961798     
                    18  0.904003504200730     
                    19  0.969111239609176     
                    20  0.969150393168234     
                    21  0.972594943777517     
                    22  6.427025586709953E-003
                    23  1.160449515803555E-002
                    24  1.159496088019596E-002
                    25  4.728890774561494E-003
                    26  2.161669254938830E-002
                    27  2.159329403253706E-002
                    28  2.668028051425677E-003
                    29  1.458196139848213E-002
                    30  2.008056945883853E-002
                    31  2.005931343323819E-002
                    32  7.255392046377039E-003
                    33  7.246508129271947E-003
                    34  7.790972987409191E-004
                    35  1.261923758657081E-002
                    36  1.259695797533268E-002
                    37  6.835036434258104E-004
                    38  3.172935490106540E-002
                    39  3.175460948158620E-002
  
    keeping                    39 of                    39
    alpha orbitals for self-interaction
  
    beta orbital populations:
                     1  5.874361917923259E-005
                     2  6.089452648892795E-005
                     3  9.826897619729845E-005
                     4  8.048770426487065E-005
                     5  7.566316110506895E-005
                     6  7.309477573910799E-005
                     7  9.685442551263970E-008
                     8  2.515831830229273E-005
                     9  2.525415103791034E-005
                    10  2.277108265428941E-005
                    11  1.092151171609544E-003
                    12  6.983600019888959E-003
                    13  6.975038835447058E-003
                    14  3.407619409064076E-004
                    15  7.840517765780023E-003
                    16  7.843866765936163E-003
                    17  1.601197444900676E-002
                    18  1.601035050423993E-002
                    19  8.938930177550755E-003
                    20  5.224895910599811E-003
                    21  2.751795004373366E-002
                    22  2.748573237490798E-002
                    23  8.093077691183972E-003
                    24  5.556144682527116E-002
                    25  5.556290790625666E-002
                    26  1.730312859283849E-002
                    27  9.416105909222958E-003
                    28  9.409021764726435E-003
                    29  1.466473738545652E-003
                    30  3.365047756315767E-002
                    31  3.364519574245849E-002
                    32  5.996019911970364E-004
                    33  5.537813204386322E-002
                    34  5.540993097277616E-002
    keeping                    34 of                    34
    beta orbitals for self-interaction 
 !!                                           !! 
 !!             Done screening                !!
 !!                                           !!
 !!!!!!!!!!!!!!!!!!!!!!!!!!!!!!!!!!!!!!!!!!!!!!
 !!!!!!!!!!!!!!!!!!!!!!!!!!!!!!!!!!!!!!!!!!!!!!
 END OF SELF-INTERACTION
 ---------------------------------------
                 
 ===============================================
 ===============================================
 !!                                           !!
 !!               SUMMARY OF INTEGRALS        !!
 !!                                           !!
 -----------------------------------------------
                                        
   U  [au]  [eV]:    0.6704      18.2357
   J  [au]  [eV]:    0.0288       0.7830
  U-J [au]  [eV]:    0.6416      17.4528
                                        
 Timing information for calculating U and J:
 ON NODE 0, STEP CPU TIME =     0.42 TOTAL CPU TIME =        3.9 (    0.1 MIN)
 TOTAL WALL CLOCK TIME=        0.0 SECONDS, CPU UTILIZATION IS 100.00%
 -----------------------------------------------
 ===============================================
 ===============================================
 ...... END OF UHF CALCULATION ......
 ON NODE 0, STEP CPU TIME =     0.00 TOTAL CPU TIME =        3.9 (    0.1 MIN)
 TOTAL WALL CLOCK TIME=        0.0 SECONDS, CPU UTILIZATION IS 100.00%
                440000  WORDS OF DYNAMIC MEMORY USED
 EXECUTION OF GAMESS TERMINATED NORMALLY Thu Aug 26 21:03:40 2010
 DDI: 1128 bytes (0.0 MB / 0 MWords) used by master data server.

 ----------------------------------------
 CPU timing information for all processes
 ========================================
 0: 3.827418 + 0.132979 = 3.960397
 1: 3.752429 + 0.050992 = 3.803421
 2: 3.748430 + 0.065989 = 3.814419
 3: 3.814420 + 0.047992 = 3.862412
 4: 3.759428 + 0.073988 = 3.833416
 5: 3.737431 + 0.048992 = 3.786423
 6: 3.716435 + 0.051992 = 3.768427
 7: 3.774426 + 0.050992 = 3.825418
 ----------------------------------------
 ddikick.x: exited gracefully.
----- accounting info -----
Thu Aug 26 21:03:43 EDT 2010
0.139u 0.074s 0:07.85 2.5%	0+0k 0+0io 0pf+0w
